
111276  0.0000000e+00
  64.3435621  65.9541082  49.6947193  64.8665905  66.6467667  50.2112103
  63.4336185  66.3798761  49.5906448  64.8342133  65.7382154  48.8387108
  64.1538763  64.7153282  50.5487776  63.1455564  64.4257879  50.2528715
  65.2705240  63.6439991  50.1641750  65.1193142  63.3317232  49.1308689
  66.2501287  64.0776491  50.3652287  65.2006149  62.3479176  50.9479141
  64.2135096  61.8472767  51.4844418  66.2179041  61.5916061  51.0485411
  66.0900450  60.6243896  51.3097906  67.0449877  62.0024824  50.6396246
  64.3227911  65.1766014  52.0229101  64.7328329  66.3300800  52.3899698
  64.0847158  64.2979479  52.9771423  63.7882614  63.3673239  52.7199507
  64.2580891  64.4119978  54.4275093  63.4373140  64.9587297  54.8917437
  64.0993929  63.0214834  55.0688076  64.5742035  62.2447681  54.4693375
  64.5253468  62.9789734  56.0712385  62.6555347  62.4035788  55.1555681
  62.3738861  62.1157169  54.1426897  62.6319933  61.0660076  55.8467197
  63.4577465  60.4059553  55.5810690  62.6643658  61.1347055  56.9340706
  61.7223454  60.5307102  55.5745077  61.5383291  63.3259535  55.6846428
  60.6868887  62.7293444  56.0120630  61.9558620  63.8807821  56.5248489
  61.2555504  64.0253830  54.8979139  65.6371498  65.0197792  54.9166965
  66.6391993  65.0014591  54.2735672  65.5673361  65.7874584  55.9833479
  64.7300482  65.7536554  56.5471792  66.7520523  66.2123346  56.7073774
  67.3972845  66.7862272  56.0422277  66.2821484  67.2067451  57.8190041
  67.2060680  67.5281620  58.2997990  65.8767509  68.1010199  57.3456907
  65.4935217  66.6605854  58.8856745  64.5477438  66.6850567  58.7228632
  67.6248980  65.1060438  57.3416758  67.0708895  64.1114616  57.6982784
  68.9244223  65.3519583  57.6795387  69.6987867  66.5465975  57.3830175
  69.4331646  67.2539520  58.1686306  69.4443655  66.9307566  56.3951921
  71.1716890  66.0863066  57.5816727  71.8205214  66.9495583  57.7297068
  71.5363932  65.5091381  56.7319870  70.9367180  65.3068161  58.9056396
  70.7707500  66.0135508  59.7187090  71.7623711  64.6398020  59.1536093
  69.7359276  64.4697285  58.5172367  70.0630951  63.6771727  57.8442383
  69.0486240  63.8561392  59.7893143  69.0789700  62.6308489  59.9715853
  68.4940577  64.6793509  60.6635141  68.4001684  65.6309557  60.3383303
  67.7239895  64.2284632  61.8502903  68.3722687  63.6537266  62.5117350
  67.4001408  65.5260086  62.7402496  68.3261967  66.0900927  62.8513002
  66.8135357  66.2100172  62.1269608  66.9061470  65.3688860  64.2078447
  66.2432814  64.5036745  64.2186260  68.0760479  65.0422859  65.1570415
  68.5667515  64.1427946  64.7852516  68.7356710  65.9100199  65.1512003
  67.7033329  64.9147367  66.1733675  66.1200666  66.5536594  64.7496128
  66.7940712  67.4074459  64.8193550  65.3902864  66.8648005  64.0021467
  65.6803131  66.2728167  65.7066011  66.5022230  63.4285831  61.5349865
  66.2922955  62.4246979  62.1944380  65.7533503  63.7118626  60.4461288
  66.0473776  64.3759680  59.7442627  64.5664310  62.9038811  60.0579309
  63.9226198  62.5748396  60.8736181  63.7941027  63.7270927  59.0474510
  64.4447947  64.1616440  58.2885933  63.1372261  63.0244541  58.5347033
  63.0063152  64.8793364  59.6940994  62.2921896  64.3826342  60.3509188
  63.6694193  65.4702568  60.3259277  62.3731470  65.8068943  58.5998058
  63.1076241  66.2497807  57.6671076  61.1321020  66.0275650  58.6780405
  65.0292540  61.5834856  59.3842125  64.3698549  60.5766869  59.5362282
  66.0827398  61.6857100  58.5516167  66.3288641  62.6527309  58.3954239
  66.7763376  60.6003237  57.8238344  65.9795141  60.1802778  57.2100496
  67.9500389  61.0452032  57.0049858  68.6195135  61.6078806  57.6555967
  68.3999777  60.1653957  56.5449858  67.3561764  61.8943977  56.0077810
  67.4204826  62.7594566  56.4190435  67.2627783  59.5820713  58.8468075
  67.1142721  58.3815098  58.7623501  67.8919649  60.0921965  59.9324083
  68.1115723  61.0776997  59.9581575  68.1767702  59.2511654  61.0913754
  68.5637569  58.2935429  60.7430983  69.1703939  60.0177431  62.0807505
  70.1568508  59.7761536  61.6849804  68.8657713  61.0638428  62.0494699
  69.2026138  59.5395279  63.5629320  68.2413149  59.4341850  64.0658283
  69.9626493  58.1985664  63.5440636  70.9755754  58.4471989  63.2274151
  69.9336863  57.8039408  64.5597076  69.5170593  57.4740076  62.8624678
  69.7947264  60.5630159  64.5619631  70.7049179  60.9957266  64.1467476
  69.0857220  61.3847542  64.6627474  69.9584723  60.0413132  65.5048943
  66.9541788  58.7442207  61.8269205  66.7517805  57.5454044  62.1208286
  66.0694695  59.6611834  62.2252893  66.2309551  60.6524658  62.1185970
  64.8671389  59.3657017  62.9835892  65.1790047  58.9583635  63.9453125
  64.1441011  60.6271887  63.4790373  63.9324141  61.2602329  62.6173258
  63.1711483  60.3048277  63.8499117  64.7534561  61.2899256  64.0935087
  64.0139198  58.3057833  62.2985077  63.4447479  57.4508667  62.9560757
  63.9209175  58.3067131  60.9901047  64.1699409  59.1524506  60.4973412
  63.3771372  57.1820641  60.2438021  62.3990059  57.0820808  60.7142878
  63.2564259  57.3845863  58.7275982  62.6316261  58.2704926  58.6140156
  64.2663193  57.5575066  58.3556938  62.6953173  56.2471485  58.0015612
  63.3857298  55.3231192  57.3404932  64.4413662  55.2804518  57.1164036
  62.4945307  54.4794559  56.7869616  62.8811646  53.7744999  56.1756945
  61.2216473  54.8415518  56.8478632  59.9916935  54.2637253  56.4674854
  60.0601816  53.3768845  55.8549309  58.7873363  54.8365307  56.9402504
  57.8632402  54.3853045  56.6103363  58.8493919  55.9233379  57.8012371
  57.9362965  56.4176130  58.0984688  60.1031017  56.4740753  58.2093000
  59.9738407  57.2589874  58.9397812  61.2739563  55.9705782  57.7336788
  64.0190649  55.8231926  60.4459095  63.3293962  54.8305225  60.5300856
  65.3794003  55.7151604  60.5149651  65.9572077  56.5435076  60.5237770
  66.0647392  54.4683027  60.9288740  65.5881310  53.6450624  60.3966808
  67.5597382  54.5942926  60.7026148  67.9140568  55.1602983  61.5641260
  67.9978180  53.5962105  60.6984472  68.0308533  55.1261091  59.3573093
  67.8293657  54.4322634  58.5411739  67.4003172  55.9815741  59.1150379
  69.5426941  55.4617453  59.3860817  70.2297068  55.0669718  60.3019333
  70.0457478  55.8937740  58.2504511  71.0274315  56.0792542  58.1021500
  69.4170666  56.0963583  57.4863672  65.8381844  54.0288687  62.3788023
  65.7748032  52.8585243  62.7502680  65.4579449  55.0109673  63.2928133
  65.6890965  55.9588814  63.0317879  65.0555038  54.7556210  64.7065449
  65.7063580  54.0279627  65.1913261  65.1831722  56.0419703  65.4820347
  64.6281862  56.8932867  65.0878906  64.7534800  55.8045769  66.9634962
  65.1557875  54.8666620  67.3463392  65.0918388  56.6301918  67.5895739
  63.6670399  55.8477926  66.8868160  66.6602755  56.4905548  65.5935907
  67.1969271  55.7590723  66.1977768  67.1112204  56.6693068  64.6174765
  66.7317390  57.4679995  66.0706615  63.6305618  54.2073870  64.7544098
  63.4028292  53.1645632  65.3598309  62.7544594  54.7863293  63.9340973
  63.1559420  55.6225061  63.5344505  61.3564539  54.3887758  63.7791109
  60.7410383  54.3446398  64.6776772  60.5997276  55.2920866  62.7650976
  60.7870913  56.3034964  63.1257057  61.1304665  55.2205086  61.8157339
  59.0740824  55.0856256  62.6451015  58.8797235  54.0457726  62.3823643
  58.7523031  55.1736021  63.6827993  58.3556986  56.2363911  61.8980074
  58.2710457  57.1393681  62.5026274  58.9585638  56.6036463  61.0674763
  56.9192076  55.7981443  61.5298223  56.3704538  55.6881380  62.4651670
  56.4831972  56.6579914  61.0212469  56.8188524  54.5474100  60.7975197
  57.6127148  54.3080282  60.2208185  56.7793608  53.7773132  61.4498138
  55.9052515  54.4394541  60.3806591  61.3744879  53.0059671  63.2035255
  60.5636740  52.2034216  63.6676502  62.1735811  52.6388884  62.1519756
  62.8585720  53.2864237  61.7892265  62.2300148  51.2329865  61.7270374
  61.2545013  50.9268761  61.3491774  63.1271219  51.1113358  60.5389214
  64.0898514  51.5575600  60.7881975  63.2355309  50.0699091  60.2359676
  62.5522661  52.0547771  59.1383076  62.4717760  53.2985115  59.6195078
  62.6663113  50.2697706  62.8484821  61.9531822  49.2738676  63.1075144
  63.8141346  50.5136251  63.5258198  64.3516874  51.3635206  63.4318876
  64.3345785  49.6381950  64.5545769  64.3621826  48.6265373  64.1497278
  65.7137299  49.9799681  65.0077772  65.7083321  50.9307814  65.5407095
  65.8934593  49.2814922  65.8250523  66.8848038  49.9599648  64.0648651
  66.6370487  50.3860617  63.0926752  68.0019617  50.8202648  64.5406723
  68.4678030  50.4407978  65.4501200  68.7855959  50.8505821  63.7836456
  67.7245235  51.8605804  64.7105742  67.2544909  48.4360361  63.8909817
  68.0029917  48.4145355  63.0988979  67.7867413  47.9425478  64.7041750
  66.3611078  47.8587008  63.6529732  63.3661127  49.4960260  65.7275629
  63.0334568  48.3698654  66.1149359  62.7905464  50.6552124  66.2567806
  63.0840874  51.5744400  65.9585285  61.6728449  50.6583071  67.1959782
  62.1067524  50.1415300  68.0519962  61.3221169  52.1550655  67.5179195
  61.1816883  52.7759409  66.6331053  60.3727007  52.1883249  68.0523396
  62.3548412  52.9199457  68.3501863  63.2897520  52.8973675  67.7902460
  61.8451071  54.3149996  68.5142612  62.5688314  55.0051355  68.9478970
  61.4495468  54.6986341  67.5738049  60.9918833  54.2132854  69.1848993
  62.6067162  52.3568249  69.7579241  63.2289505  52.9935598  70.3868055
  61.6791439  52.1471310  70.2905989  63.1748962  51.4406681  69.5969057
  60.3921270  49.9831390  66.6758060  59.7106028  49.4165659  67.4962521
  60.0080967  50.0742054  65.4295492  60.5943298  50.5435705  64.7541761
  58.9096642  49.2481756  64.8678684  57.9749346  49.5242643  65.3558826
  58.8382721  49.6812725  63.3553886  58.6459064  50.7540417  63.3392525
  59.7836733  49.5053625  62.8421926  57.7594185  49.0107727  62.5030756
  57.8887796  47.9383469  62.6489210  56.7845774  49.3087578  62.8890705
  57.8573990  49.4554281  61.0546780  57.5871849  50.5098486  60.9974098
  58.8701725  49.2982054  60.6836367  56.9004917  48.6235666  60.1502085
  57.1743345  47.5847816  60.3347206  55.9142065  48.7675095  60.5913639
  56.9727898  48.9938211  58.6983490  56.1459494  48.6901426  58.2041693
  56.9415140  49.9976063  58.5909176  57.7291489  48.5555220  58.1924677
  59.1413164  47.7330923  65.0326347  58.2567787  47.0324564  65.5449915
  60.3723383  47.2981739  64.6869612  61.0040236  48.0023813  64.3331671
  60.8665133  45.8773232  64.7865534  60.1766062  45.2112770  64.2683744
  62.2135019  45.7446527  64.1192913  63.0488300  46.1646986  64.6795511
  62.3861790  44.6717596  64.0345287  62.2625923  46.2789965  62.6898623
  61.1074591  46.5173578  61.8288469  60.1255703  46.3078070  62.2268343
  61.3178921  47.0277309  60.5186224  60.4491854  47.1722364  59.8934269
  62.6545715  47.2861242  60.0621748  62.8005075  47.8200006  58.8136339
  61.9813299  48.2431269  58.5462141  63.7943077  46.9686079  60.8423996
  64.7842646  47.2485590  60.5137587  63.5926580  46.4501858  62.1617651
  64.4262838  45.9950733  62.6759100  60.9780264  45.4490662  66.2784147
  60.7852888  44.2807102  66.6047096  61.1002684  46.4327097  67.1500444
  61.5497923  47.2708368  66.8100786  61.3013220  46.2559462  68.5946846
  62.0282602  45.4605865  68.7591982  61.6983509  47.5689936  69.4020033
  61.0180044  48.3996725  69.2143822  61.7061090  47.2682428  70.4496670
  63.0343199  47.9864264  69.0405560  63.1309605  48.1441164  68.0985403
  60.0382376  45.7678223  69.2757559  59.1462469  46.5706825  69.6926975
  59.7741032  44.4917154  69.2986202  60.3946972  43.9549398  68.7096930
  58.5505486  43.8545084  69.8756933  57.7005148  44.2769098  69.3398523
  58.5371447  42.3773098  69.6278191  57.6882982  41.8861866  70.1035881
  58.3364677  42.1352434  68.1337690  58.3748198  41.0848475  67.8451538
  57.3266554  42.4775362  67.9074669  59.0975857  42.6110268  67.5153589
  59.7297144  41.7893076  70.0614119  59.5235348  40.9482956  70.4758930
  58.4082508  44.1442347  71.4110041  57.3425102  44.0983295  71.9807386
  59.5213318  44.5113182  72.1246862  60.4378033  44.3644953  71.7264080
  59.5058584  44.9063969  73.5547829  58.7001705  44.3137026  73.9879942
  60.8386517  44.5841074  74.2758417  60.8482313  45.0035524  75.2818680
  61.3360977  43.1990719  74.3549395  61.2838650  42.7682781  73.3550406
  62.2968912  43.1385994  74.8661327  60.6037188  42.6445389  74.9416304
  61.7231989  45.2807331  73.4907675  62.6022720  44.9339437  73.6597681
  59.1733265  46.3965654  73.7994528  58.9802122  46.7372131  74.9675322
  59.1915226  47.2339678  72.7569914  59.2721891  46.7714930  71.8627310
  58.8771820  48.6449289  72.8903246  59.2913628  49.0493965  73.8138819
  59.3283939  49.4089270  71.6085625  60.3432178  49.0823746  71.3814306
  58.6411095  49.1983223  70.7891798  59.2358065  50.9487629  71.6770267
  58.3611679  51.8033028  71.1192894  57.5428104  51.3998604  70.5414248
  58.7594461  53.1576252  71.3225460  58.3829021  53.9540434  70.8285522
  59.8592186  53.1750870  72.1653175  60.7737589  54.1928959  72.5322104
  60.5206919  55.2264595  72.3475266  61.9271708  53.8318205  73.2330513
  62.5592089  54.6458578  73.5559559  62.2887850  52.5126696  73.5185909
  63.1560516  52.2712326  74.1152096  61.3937664  51.5122414  72.9969311
  61.6620970  50.4841709  73.1904984  60.2487040  51.8287659  72.2603321
  57.3264647  48.9618540  73.0567932  56.4797926  48.1865358  72.5771427
  56.9469404  50.1226807  73.7395430  57.6748466  50.6418467  74.2093515
  55.5586243  50.4128218  74.1008520  54.9225569  49.7283602  73.5395765
  55.3125000  50.2769756  75.6297159  55.2436066  49.2311764  75.9291315
  56.1809492  50.6926966  76.1406803  54.0489149  51.1018372  75.9975576
  54.3438530  52.1478701  76.0807467  53.2678175  50.8425522  75.2828741
  53.5366344  50.7911491  77.3887682  53.4276676  49.7066355  77.3814106
  54.3342018  50.9899139  78.1046534  52.2619915  51.5539408  77.8285170
  52.4768639  52.6137114  77.6913404  51.4266539  51.2716484  77.1877193
  52.0428085  51.1910677  79.2270422  51.9324827  50.1921606  79.3275928
  52.9229212  51.3703966  79.6889353  51.3162899  51.7211151  79.6867466
  55.2355957  51.7833519  73.5341597  55.4857731  52.8738451  74.1175795
  54.8064756  51.8747759  72.2705507  54.5913267  50.7971573  71.3140440
  53.8777733  50.0284004  71.6106176  55.5473089  50.3870773  70.9884310
  54.1012859  51.4143372  70.0331450  53.0305624  51.6135311  69.9887896
  54.4236279  50.8321953  69.1698313  54.7515774  52.7784681  70.1670933
  54.3656921  53.4823418  69.4296932  55.8077765  52.7478361  69.8994970
  54.6505213  53.1789684  71.5987396  55.4710817  53.8601398  71.8241167
  53.2511377  53.8890409  71.9211149  52.2540188  53.2350159  72.3093271
  53.1671906  55.2101707  71.9566107  54.0224981  55.6878233  71.7108583
  52.0788908  56.0777235  72.3339605  51.9338083  55.8435965  73.3885908
  52.4765110  57.5346327  72.2464800  53.5093546  57.6384592  72.5789690
  52.4084711  57.7140093  71.1734962  51.5697002  58.4865856  73.0114412
  50.5403090  58.4251785  72.6583290  51.5008593  58.3671188  74.5763159
  50.8368158  57.5401640  74.8278856  52.5101900  58.2238054  74.9620914
  51.1705637  59.2896605  75.0537252  52.0678234  59.8831701  72.6282358
  51.4814186  60.5835152  73.2230043  53.1095409  60.0410032  72.9075527
  51.8245077  60.0867605  71.5854263  50.7778692  55.7738972  71.5807629
  50.6639290  55.6344795  70.3452873  49.6326351  55.8188725  72.2995138
  49.7129059  55.8789682  73.3045244  48.2850742  55.6517076  71.8417406
  48.2803774  54.7300053  71.2598896  47.4013901  55.5527878  73.0960560
  47.6713133  54.7786570  73.8143635  47.4888229  56.5528107  73.5207987
  45.9685898  55.4393625  72.7502346  45.4997826  55.1622009  71.6315889
  45.1183653  55.5115414  73.7176800  44.2013359  55.1685524  73.4696531
  45.4248571  55.6520844  74.6697330  47.9370165  56.8064070  70.8876228
  47.9127979  57.9233217  71.3813353  47.4542093  56.6555119  69.6413231
  47.3844242  55.3763676  68.9213896  47.0037699  54.5976686  69.5823240
  48.3145237  55.1221514  68.4130716  46.4550924  55.6678915  67.8118420
  45.4825068  55.5717373  68.2944679  46.6119146  54.9695110  66.9897938
  46.6846895  57.1406507  67.4350119  45.7928562  57.6505327  67.0706606
  47.4915648  57.2802019  66.7155790  46.9809437  57.7506161  68.7744427
  47.7265739  58.5233116  68.5871696  45.6947470  58.3251524  69.4318914
  45.3968859  59.4749403  69.1804934  44.9366903  57.6062918  70.2855682
  45.1270580  56.6294146  70.4575253  43.7050915  58.1190681  70.9592295
  43.2080555  58.8528252  70.3246737  42.6479721  56.9497299  71.0121250
  42.6466227  56.4222002  70.0582838  43.0312777  56.2407732  71.7459965
  41.2544298  57.4014091  71.4084291  40.7898188  58.4049082  70.8600235
  40.7395267  56.8608522  72.4167681  39.8283625  57.1629286  72.7308226
  41.2756395  56.1735868  72.9270124  43.9132118  58.8408041  72.3384666
  42.9031706  59.2472696  72.9722118  45.2150631  58.9760113  72.8060627
  45.9708881  58.7492132  72.1756697  45.4969263  59.8360872  73.9678049
  45.1098251  59.3309164  74.8527098  47.0295811  59.9776411  74.0741825
  47.4224997  58.9714575  74.2201853  47.4769306  60.4952717  73.2256365
  47.3309755  60.6284475  75.2685452  47.0054722  60.0935888  75.9962654
  44.8322725  61.1313057  73.7884474  44.7332239  61.5934277  72.6576471
  44.4465590  61.7326164  74.9243498  44.5000172  61.1986160  75.7799721
  43.9753675  63.1822586  75.1012564  43.1301451  63.2930708  74.4219780
  43.4973431  63.4878159  76.5367794  43.0546951  64.4836569  76.5152931
  42.7968216  62.7222633  76.8704081  44.6088696  63.5424423  77.5901127
  45.0631428  62.4770689  78.3947134  44.6325397  61.4867878  78.3765984
  45.9933186  62.9564524  79.3347025  46.3911152  62.3551750  80.0420380
  46.1428022  64.3690538  79.1742086  46.9574070  65.2173519  79.8196554
  47.5009871  64.9111414  80.7012177  47.0753860  66.5034866  79.2734051
  47.7097511  67.2533512  79.7225142  46.3333941  66.9683552  78.1669188
  46.4424133  68.0089569  77.8992271  45.6362152  66.0015297  77.4528360
  44.9688339  66.2763453  76.6494179  45.3895807  64.7112226  77.9917955
  45.0770044  64.1526079  74.6320772  44.7255516  65.2586460  74.2582464
  46.3626289  63.8005257  74.5419025  46.5720606  62.8610945  74.8480272
  47.4053812  64.6613693  74.0294456  47.4591589  65.5103397  74.7109604
  48.8065529  64.1062689  74.0998602  48.8764620  63.3283949  73.3395147
  49.5139122  64.8973274  73.8509226  49.3340778  63.6473846  75.4686451
  48.6863232  62.8668165  75.8676767  50.6709576  62.9437971  75.1847649
  50.8632278  62.2862864  76.0325909  50.6213140  62.3008728  74.3059635
  51.4020634  63.7386274  75.0369978  49.4874239  64.7106934  76.5530634
  50.2501249  65.4342842  76.2652969  48.6005783  65.2585220  76.8716478
  49.8106575  64.1580963  77.4352503  47.1929455  65.1948166  72.5576544
  47.4357653  66.3485241  72.2107840  46.8106127  64.2500353  71.6462088
  46.6885424  63.3031130  71.9756603  46.5300035  64.5119333  70.2413273
  47.2942305  65.1573038  69.8082447  46.6168928  63.2067013  69.4865131
  45.9890318  62.4526739  69.9612093  46.2157345  63.4411287  68.5005045
  48.0546427  62.5893784  69.3312359  48.2709932  61.3002300  69.8819733
  47.5403214  60.7803774  70.4838562  49.4342184  60.5802774  69.6846247
  49.5304012  59.5789289  70.0776291  50.4822636  61.1589193  68.8836145
  51.6021395  60.4576111  68.6424398  51.3719368  59.5272350  68.5875702
  50.2736807  62.4048376  68.3139133  51.0479641  62.8675699  67.7199745
  49.0904617  63.1890917  68.6121273  48.9349174  64.1610718  68.1677580
  45.2121687  65.1823950  70.0932217  45.1769686  66.1267614  69.3079424
  44.2082214  64.8897791  70.9573078  44.1874838  64.0083027  71.4499187
  42.9736471  65.6391287  70.9819317  42.5366306  65.6465054  69.9834013
  41.8530512  64.8572636  71.7578173  42.2352266  64.6320248  72.7534628
  40.9688568  65.4939985  71.7873573  41.4843559  63.5480928  71.0806513
  40.8453846  63.4744501  69.8470497  40.6619930  62.1578169  69.5984268
  40.1310682  61.7239666  68.7639809  41.1807680  61.4520073  70.5758905
  41.2485695  60.4477930  70.4918623  41.6188478  62.3077774  71.5785980
  42.1101809  61.9625044  72.4762535  43.1410551  67.0528841  71.4971113
  42.4017811  67.9302359  71.0859394  44.1442776  67.3103619  72.3990250
  44.5751286  66.4891958  72.7992249  44.5756245  68.6436081  72.8220224
  43.7290955  69.3202591  72.9387569  45.1272392  68.4211397  74.1351128
  45.3220415  69.3816805  74.6121120  44.4427824  67.8302956  74.7438192
  46.0760355  67.9127932  73.9634323  45.5718040  69.3301964  71.8402958
  46.1103487  70.4200697  72.0667505  45.9300900  68.5655594  70.7646799
  45.3693008  67.7259827  70.7376957  46.9150209  68.8662720  69.7617435
  47.1333075  67.9527807  69.2085838  46.2172842  69.7857141  68.6927509
  46.2162304  70.7776165  69.1446781  46.8881273  69.7046900  67.8374672
  44.8467875  69.3084145  68.1295013  44.8969364  68.2515144  67.8676796
  44.0499783  69.4836473  68.8523388  44.4580317  70.0961256  66.8421364
  43.4399319  69.9096870  66.5003538  44.4593382  71.1632681  67.0641851
  45.3608704  69.8537302  65.6287766  45.0772333  70.7309389  65.0472641
  46.3972664  69.8685312  65.9660673  44.8883581  68.6297464  64.9340677
  45.4591322  67.7965689  64.9456978  43.9321184  68.4538746  65.2075148
  44.9524689  68.8331413  63.9468384  48.3560038  69.3249416  70.2338743
  48.9303589  70.2628088  69.6198034  48.7762976  68.8560200  71.3653183
  48.1274652  68.2153320  71.7996454  50.1617289  69.1455126  71.9544649
  50.3634691  70.2022600  71.7792606  50.1671743  68.6544704  73.3705091
  49.9357271  67.5896072  73.3950186  51.1984062  68.7387228  73.7133837
  49.2898846  69.3764019  74.4323921  48.2443094  69.2963219  74.1349649
  49.5354986  68.7074614  75.8004618  48.9608860  69.2858267  76.5239334
  49.1264009  67.6976490  75.7685137  50.5869102  68.6607313  76.0840940
  49.8134756  70.7759333  74.5807409  50.8005619  70.7087517  75.0381756
  49.8226118  71.3658476  73.6642122  49.0820932  71.2572002  75.2300167
  51.1508656  68.4542608  71.0824394  52.2684336  68.8490343  70.8832216
  50.7479000  67.3735285  70.3846788  49.9304056  66.9107771  70.7557106
  51.5691280  66.6744232  69.3686533  52.5964880  67.0385456  69.3612051
  51.6452980  65.2187920  69.9054480  50.6338120  64.8191690  69.9782467
  52.2596502  64.6723461  69.1898537  52.4029350  65.1059341  71.2695456
  52.1093416  65.8613539  71.9984102  52.1290588  63.7339163  71.8790054
  52.4496746  62.9097128  71.2418270  52.5974321  63.7645960  72.8627682
  51.0528469  63.6155939  72.0050049  53.8929272  65.3696299  71.0172606
  54.4839811  64.6145105  70.4990435  54.0578079  66.3553810  70.5822802
  54.4522715  65.3487968  71.9525671  51.0680628  66.6085958  67.9363012
  49.9505758  67.0310307  67.6630354  51.9183254  66.1997652  67.0432997
  52.8663492  66.2156630  67.3912954  51.6349030  66.3053656  65.6192112
  50.5600691  66.1984444  65.4729557  52.1529818  67.7234364  65.1811028
  51.5764952  68.5351658  65.6247902  53.2042503  67.8292608  65.4489326
  52.0926905  67.9067421  63.6281395  52.6309061  68.8744402  63.1157970
  51.5252876  67.0971203  62.8729773  52.4749660  65.2347946  64.8544407
  53.6984491  65.2947950  64.6434212  51.8324089  64.0960407  64.5230675
  50.4298687  63.8488531  64.7623730  49.8184347  64.5556784  64.2014313
  50.1980686  63.9454508  65.8230543  50.1602888  62.3519516  64.3803406
  49.7826242  62.2814846  63.3602905  49.5349693  61.9952965  65.1987982
  51.5889740  61.6984844  64.5107794  51.6299868  60.8261442  63.8585234
  51.8404865  61.5314817  65.5581379  52.5550890  62.8035021  64.1069841
  53.4342098  62.7067041  64.7440672  52.9641247  62.7766848  62.6086712
  52.5035906  61.9625950  61.8522882  53.6880159  63.7626410  62.0674181
  53.8996696  64.5306063  62.6883316  53.8184786  64.0772057  60.6186581
  53.2798576  63.3030939  60.0720882  53.0755711  65.3540611  60.2726984
  53.2478094  65.8677483  59.3268871  51.9999409  65.1795578  60.2986288
  53.4989595  66.3749743  61.1806870  52.7974272  66.6417503  61.7792559
  55.2635193  64.1815042  60.1134777  55.5778217  64.2332649  58.9274693
  56.2381744  64.0352011  60.9986019  55.9639740  63.6680317  61.8986607
  57.6720524  64.0634441  60.7146311  57.8169918  63.8244915  59.6610641
  58.3706331  65.3539419  61.1121702  58.0864096  66.1327314  60.4044914
  58.0580282  65.9105825  62.5381517  58.0205297  65.0214863  63.1676006
  58.8721132  66.5435457  62.8913260  57.1726418  66.5380430  62.6405334
  59.7089434  65.3058720  61.0409021  59.9519062  65.6938601  60.1970768
  58.2537460  62.9396009  61.5447235  57.6943636  62.5926495  62.6018906
  59.3943357  62.3077488  61.1974812  59.9848032  62.3006153  59.8635674
  60.7243252  63.0975437  59.7853899  59.2072010  62.2729063  59.1002369
  60.7360125  60.9987974  59.7208023  61.6517448  61.2140608  59.1701698
  60.0640392  60.2642250  59.2770195  61.0338020  60.5828714  61.1221457
  62.1126413  60.6713533  61.2501335  60.8887148  59.5065165  61.2143850
  60.1052094  61.3080645  62.0828247  59.4317055  60.5333805  62.4493694
  60.6260204  61.9116306  63.3646727  60.8174706  61.1695814  64.3190575
  60.8936787  63.2198954  63.4351540  60.4771709  63.8292599  62.7457380
  61.3393688  63.8781738  64.6978855  62.2719336  63.4264898  65.0361252
  61.6923428  65.3765774  64.4227839  60.9012651  65.9515953  63.9414835
  62.0696020  66.1551666  65.6694412  62.1745539  67.2098970  65.4151869
  61.2026405  66.0876846  66.3266516  62.9522943  65.7860756  66.1916685
  62.9897451  65.3542042  63.6092710  62.8521681  64.8212862  62.6684332
  63.3160400  66.3065386  63.1913042  63.8959408  64.9626398  64.0714264
  60.3269577  63.6297703  65.7892561  60.7279730  63.6420488  66.9451618
  58.9899206  63.4892082  65.5642986  58.7109423  63.4799576  64.5936394
  57.9718733  63.1476212  66.5574932  57.8570700  63.9860582  67.2444725
  56.5778351  63.1542921  65.7978439  56.4836407  64.2032957  65.5171108
  56.6565275  62.4831343  64.9425840  55.5210781  62.6090145  66.7079687
  54.7964716  63.3927584  67.6468086  54.1175985  62.5531292  68.4113646
  53.4618902  62.8372335  69.2211437  54.2963028  61.3063717  68.0140305
  53.9054966  60.5016136  68.4827900  55.0865459  61.3640308  66.8984127
  55.4208183  60.4919624  66.3560486  58.3895397  61.9094133  67.4176073
  58.0419159  61.8608379  68.6331177  59.0313959  60.8904791  66.8063498
  59.4121838  61.0466862  65.8840179  59.5605946  59.7685719  67.5311470
  58.7343407  59.2973375  68.0634451  60.1887226  58.7464333  66.5739155
  61.0294962  59.2161179  66.0634232  60.8622169  57.5370550  67.2811556
  60.1804018  56.6918182  67.1873236  61.7218494  57.2304440  66.6852331
  61.1705780  57.6861525  68.3159447  59.2719078  58.2148361  65.3904486
  59.1582537  58.9940929  64.6368313  59.8520947  57.3835850  64.9898148
  57.9311228  57.6706982  65.7532644  57.2956181  58.5350561  65.5606318
  57.7063370  56.9178391  64.9977732  57.9843903  57.2772837  66.7683887
  60.4463100  60.1702833  68.7027740  60.2865362  59.7580671  69.8462105
  61.3891840  61.0612822  68.4160423  61.3902378  61.4558172  67.4862909
  62.4298573  61.5513754  69.3200493  62.9293585  60.6682253  69.7183466
  63.4990311  62.3863935  68.5727310  62.9978561  63.2918215  68.2305002
  64.2507124  62.6995087  69.2973232  64.1261816  61.7139435  67.3525906
  63.4806919  61.2075758  66.6349268  65.0126314  62.8284407  66.7117739
  65.6460190  63.3308840  67.4428511  65.6803656  62.3797798  65.9762955
  64.3691969  63.5733175  66.2435246  65.0755787  60.6246614  67.9017973
  65.9100533  61.1997747  68.3030462  64.6508360  59.9798775  68.6711836
  65.4359388  60.0351810  67.0587397  61.7691851  62.4031019  70.4411411
  62.1813869  62.3503304  71.5754557  60.5994463  63.0862379  70.1417160
  60.3300095  63.0803490  69.1683340  59.6980619  63.6563063  71.1388206
  60.3287983  64.2234087  71.8234158  58.6867619  64.6954203  70.4789400
  59.1300154  65.1478624  69.5918560  57.8892612  64.1103840  70.0208712
  58.1398344  65.8916712  71.2872791  57.3857498  65.5378103  71.9903040
  58.9161158  66.2842894  71.9440508  57.5636196  67.0477676  70.4210186
  56.8489027  66.6039610  69.7279739  57.0329046  67.6885939  71.1251354
  58.6188889  67.7515936  69.7742033  59.4809961  67.7236223  70.2996397
  58.5467243  68.4745312  68.6575460  57.3940277  68.5974693  67.9441500
  56.5962505  68.0838108  68.2902861  57.4262047  68.9870501  67.0128632
  59.6353102  69.0096855  68.1267452  60.5020618  68.9669895  68.6434841
  59.5729971  69.3855667  67.1913719  58.9654446  62.7382374  72.0758057
  59.0002728  62.9552174  73.3076382  58.3118343  61.7143106  71.5067244
  58.4933186  61.6505527  70.5152130  57.7225876  60.6077194  72.3040056
  56.9195700  61.0261631  72.9107809  57.1666145  59.5111609  71.4294672
  57.7946281  59.3453407  70.5541372  56.9918203  58.6459064  72.0689106
  55.7249689  59.7978258  70.9948587  55.0871277  59.8396492  71.8777561
  55.6096840  60.7272863  70.4372549  55.1084566  58.5808468  70.2008867
  55.5033970  57.4366665  70.3640604  54.1077709  58.7959814  69.4873285
  58.7705898  59.9534607  73.2675648  58.4694862  59.6876240  74.4364214
  59.9980307  59.8693132  72.8157616  60.2749825  60.2148581  71.9080162
  61.0572243  59.3808556  73.7672710  60.6574965  58.5555887  74.3565464
  62.2896051  58.8657522  72.9957247  62.7399921  59.5635033  72.2897482
  63.3326864  58.4014845  73.9645815  63.8506889  59.2219400  74.4611979
  62.9020548  57.7597713  74.7332573  64.0657473  57.8380489  73.3872938
  61.8389845  57.6267195  72.1700478  61.7726803  56.7914152  72.8671646
  60.8906889  57.8006077  71.6615248  62.8376293  57.2407961  71.0279942
  63.8122654  56.7981863  71.2336254  62.3440647  56.7247391  70.2044773
  63.0870199  58.1696558  70.5150366  61.5243530  60.3918171  74.8239279
  61.5625477  60.0870895  76.0230207  61.8814182  61.6097546  74.4785261
  61.9278526  61.7199707  73.4756327  62.5773335  62.5638580  75.3413820
  63.4549952  62.0562315  75.7415390  62.8118658  63.4924889  74.8210526
  61.6799355  63.0000257  76.5319300  62.2871971  63.3153057  77.5500774
  60.3761673  63.0300856  76.3794708  59.9410534  62.6428795  75.5543375
  59.3873644  63.3929110  77.4455023  59.9648857  63.8467312  78.2508659
  58.2869244  64.3894243  76.9800282  57.6342916  63.8946915  76.2607193
  57.6336145  64.6853733  77.8008223  58.8082266  65.7184935  76.3919497
  59.7571659  65.5346394  75.8881474  57.8252363  66.2403631  75.3044701
  56.9244003  66.4898300  75.8651495  58.1958675  67.1400499  74.8132467
  57.7325964  65.4571247  74.5521021  59.0894938  66.7943573  77.4878502
  58.2036161  67.1730518  77.9976702  59.7656679  66.3196707  78.1988811
  59.6344948  67.5380039  76.9064188  58.8123512  62.0455885  77.9853821
  57.8532553  62.1718264  78.6772537  59.3604612  60.8540583  77.6661777
  60.2208376  60.7792091  77.1424770  59.0509939  59.6243429  78.3998489
  59.7272301  58.8176441  78.1169224  59.2287493  59.6982384  79.8971796
  58.5408878  60.4210520  80.3359318  59.0040922  58.7265778  80.3370667
  60.6193590  60.1508856  80.3413486  61.4227343  59.7248650  79.7403574
  60.7359982  61.2346268  80.3434277  60.8700418  59.6469879  81.7829418
  60.8769464  58.5595703  81.7082787  61.8242598  60.0874472  82.0720005
  59.7616482  59.9604273  82.7085876  59.0641451  60.6114912  82.3773384
  59.6345234  59.5638466  83.9516449  60.5132914  58.8612509  84.5933437
  61.4175367  58.6807203  84.1812229  60.3891706  58.6000347  85.5610561
  58.5341454  59.8282242  84.6032810  57.6766539  59.9025488  84.0748024
  58.4350967  59.6438313  85.5913544  57.6023054  59.1113806  78.0085373
  56.9286728  58.5883331  78.8936901  57.1084213  59.2925978  76.7930603
  57.6876879  59.7330523  76.0926628  55.8180285  58.8161135  76.3296890
  55.1482105  58.6827946  77.1792030  55.2183676  59.8231030  75.3701019
  55.7584238  59.8888826  74.4255877  54.2138338  59.4730043  75.1325178
  54.9875736  61.2585974  75.8611059  56.0025978  61.6298151  76.0026026
  54.2707109  62.0826912  74.8017788  54.8118591  61.9333363  73.8674593
  53.2054853  61.9127274  74.6452188  54.4305563  63.1086969  75.1332474
  54.3295002  61.6168499  77.1909618  53.2518816  61.7252588  77.0681429
  54.5448637  60.7794333  77.8546238  54.7801018  62.5122213  77.6191759
  55.8875895  57.4365044  75.7141829  54.8301458  56.8110180  75.4845953
  57.0443058  56.9519520  75.3991508  57.9263115  57.3500204  75.6884718
  57.2395182  55.6908941  74.6849298  56.4358950  54.9728966  74.8485422
  57.2202396  55.9453678  73.1449795  58.1159210  56.4629698  72.8015471
  57.2456074  54.9670219  72.6650906  55.9724665  56.5687609  72.8673697
  56.0135698  56.9159508  71.9732952  58.5729408  55.0429535  75.0515127
  59.5997143  55.7153654  75.1802063  58.6656904  53.7254524  75.2975321
  57.8953028  53.1546402  74.9800730  59.7607803  53.0681038  76.0658026
  60.7392645  53.5222816  75.9096146  59.5059299  53.4075403  77.5523567
  59.3471670  52.4446058  78.0377865  60.4291725  53.8195133  77.9597950
  58.3174515  54.2400932  77.9592419  56.9734287  53.8830423  78.0125761
  56.3239765  54.9426699  78.5412836  55.2464342  54.9988079  78.5877466
  57.1839094  55.8698225  78.9105797  56.9915152  56.8166828  79.2047501
  58.4466648  55.4874420  78.4911633  59.3744230  56.0161877  78.6527157
  59.8957634  51.5377235  75.9674788  58.8331318  50.9947729  75.6228018
  61.0675144  50.9137011  76.2236214  61.8563271  51.4709759  76.5191317
  61.2611771  49.4781351  76.3543797  60.7321310  48.9191723  75.5825186
  62.7466488  49.3360329  76.0174894  63.2637358  50.1665592  76.4980602
  62.8697395  49.5149326  74.9493361  63.5250425  47.7595425  76.6458750
  60.7994556  48.8711739  77.6577759  60.8521175  49.5041609  78.7437344
  60.3430462  47.6245689  77.4712801  60.3096867  47.2328138  76.5409517
  59.8057985  46.7890263  78.6266851  59.2741394  47.3967218  79.3589020
  58.7249184  45.7625818  78.0743742  58.3647156  45.1148891  78.8736534
  57.8913593  46.2932873  77.6143312  59.1783476  44.9960995  77.0411634
  59.2783737  45.6154013  76.3144827  60.8061457  45.9110880  79.4153452
  60.4379082  45.1959085  80.4158401  62.1069670  45.8737612  79.0594625
  62.3645020  46.4982843  78.3086300  63.1595135  45.4321146  79.9258566
  62.9516029  44.5490408  80.5300522  64.3496847  45.0314474  79.0201473
  64.4530725  45.8251333  78.2802296  65.2322769  44.9125910  79.6486425
  64.1910410  43.6988735  78.3299875  64.3849802  42.4236488  78.9314556
  64.3454123  41.5258551  77.9520750  64.4815397  40.4671574  78.1164932
  63.9486933  42.1137428  76.7838669  63.8408089  41.5868998  75.9289408
  63.9665794  43.5330057  76.9790649  63.7837410  44.3358135  76.2801600
  63.4924364  46.5187883  80.9522915  63.7005568  46.2850189  82.1329975
  63.5369015  47.7726746  80.4808712  63.2951832  47.8604794  79.5041656
  64.0906906  48.9603090  81.2289906  64.9306917  48.6768341  81.8631458
  64.6472645  49.9386072  80.2181435  64.7924423  50.9219265  80.6654739
  63.9315796  50.0315762  79.4012833  66.1714840  49.2008400  79.5739794
  63.0557680  49.4090748  82.2153091  63.4233952  49.5146513  83.4256172
  61.8364382  49.7697639  81.6781044  61.8646336  49.7281122  80.6693554
  60.7932329  50.6780624  82.2957134  60.8182430  50.5981827  83.3825016
  61.1535120  52.2038031  81.9462967  60.3084040  52.7780819  82.3258972
  62.4268723  52.6947832  82.6146507  63.3283949  52.3176861  82.1317959
  62.4794531  53.7802267  82.5301266  62.3001289  52.4092960  83.6589336
  61.3238621  52.5353765  80.4625511  62.2474813  52.2330904  79.9689436
  60.5155468  52.0189810  79.9447918  61.3015652  53.6224127  80.3853893
  59.3601227  50.2471495  81.8198776  58.6088085  51.1101675  81.3795376
  59.0481281  48.9330721  81.8228436  59.9241924  47.8646231  82.3111820
  60.5525589  48.2264328  83.1250286  60.5783081  47.5546122  81.4962482
  58.9519072  46.7883921  82.8308392  58.5781097  47.0493793  83.8209248
  59.4264698  45.8098459  82.9039001  57.7584314  46.8223858  81.8239880
  56.8195629  46.3916063  82.1719265  58.0238581  46.0797405  81.0715675
  57.7201748  48.3201838  81.4968777  57.5532961  48.3123302  80.4197598
  56.3943434  48.8593197  82.0373631  55.3576422  48.9441967  81.3441467
  56.4317417  49.3083477  83.3254433  57.3323774  49.3411779  83.7813759
  55.3410292  49.9878168  84.0658569  54.3877602  49.8260212  83.5626602
  55.2966690  49.2782021  85.5092907  56.1724234  49.5434380  86.1015797
  54.4798946  49.6881437  86.1033726  55.2454042  47.7384996  85.4441071
  54.3908167  47.4586678  84.8280907  56.1411428  47.3137808  84.9909401
  55.1198578  47.0106792  86.7715549  54.2884684  47.4615431  87.3134136
  54.8049688  45.9823084  86.5943527  56.5180779  47.1917486  87.4858475
  57.3013544  47.0564747  86.7400074  56.7057562  48.1986237  87.8587818
  56.8436337  46.1176538  88.4467602  56.3886929  45.2707911  88.1370068
  57.8453255  45.9971666  88.3998394  56.5027571  46.3025999  89.3793297
  55.4866886  51.4935446  84.2077160  54.8872185  52.0822239  85.1408672
  56.3777065  52.2283602  83.4479141  56.8929768  51.7689133  82.7106857
  56.5213442  53.6322165  83.5212231  56.4028883  53.9659739  84.5520878
  57.8713417  54.0919781  82.9606247  58.5027361  53.7120199  83.7637806
  58.1599712  53.5309362  82.0717907  58.0042839  55.6659842  82.7977276
  57.3491144  56.0178041  82.0008087  57.7519941  56.4100838  84.1197300
  56.7354488  56.3642311  84.5104218  58.4347820  56.2389803  84.9519634
  58.0018663  57.4538422  83.9293671  59.4468594  55.8293819  82.3897839
  59.6828365  55.1871681  81.5412617  59.6609306  56.8607903  82.1096611
  60.0891018  55.5523968  83.2257938  55.4177427  54.3209362  82.7050877
  55.3568506  54.0445900  81.4999390  54.4748306  55.0614405  83.3056068
  54.5102262  55.2884912  84.2891216  53.3591795  55.5903292  82.5509548
  52.9467678  54.8066759  81.9154072  52.1905804  55.9872723  83.4008217
  52.5449753  56.7620468  84.0806961  51.4165735  56.4247036  82.7702141
  51.5201139  54.8756409  84.1351414  52.2125149  54.5473862  84.9103355
  50.7125092  55.3385353  84.7022343  51.0560179  53.6446381  83.3603859
  50.5697393  53.8325930  82.2258186  51.1913252  52.4913168  83.8474178
  53.8120079  56.8061733  81.7019463  54.5930958  57.5955820  82.2142696
  53.2389879  56.9404840  80.4561710  52.3023558  56.0466814  79.8344755
  51.5045118  55.7509947  80.5157375  52.7890730  55.1698542  79.4074106
  51.5873146  56.8957663  78.7993145  50.7877970  57.3909473  79.3503761
  51.1462688  56.3153172  77.9889679  52.6971579  57.9424000  78.4285688
  52.1971321  58.8169479  78.0123568  53.3567810  57.6235723  77.6215124
  53.4521675  58.1825829  79.7451687  54.5195055  58.2674122  79.5409918
  52.9542875  59.4983864  80.3875351  53.7060547  60.5208397  80.3286743
  51.7157125  59.4324875  80.8863926  51.3881350  58.4785223  80.9387684
  50.7557535  60.4857445  81.3542461  51.1117315  60.9924555  82.2512531
  50.4797792  61.4753485  80.2039528  49.4279051  61.7601109  80.2280045
  51.3674021  62.7692890  80.2621841  52.3553419  62.5573826  79.8533154
  50.8742428  63.6178446  79.7880030  51.5299034  63.0470610  81.3035965
  50.4199409  61.1099958  78.7381554  50.1141500  62.0267963  78.2341051
  51.4155579  60.8717680  78.3638668  49.3674994  60.0730085  78.3679056
  49.4788361  59.7727156  77.3260164  49.5851946  59.2045069  78.9895248
  48.3611202  60.4788303  78.4709024  49.3705702  59.9002743  81.7432499
  49.2761898  58.6512470  81.7297077  48.3435154  60.6527853  82.2650433
  48.3626938  62.1038914  82.5035572  48.3225346  62.7139473  81.6011620
  49.2301178  62.3109770  83.1302834  47.0819139  62.3984003  83.2153702
  46.3894844  62.8029728  82.4771500  47.1848488  63.1646204  83.9837551
  46.5250301  61.0859823  83.7843990  45.4352760  61.0817719  83.7617588
  46.9036818  60.8671904  84.7828197  47.1068668  60.1062441  82.7333355
  47.2400141  59.1322756  83.2042408  46.0954237  59.9854326  81.6017723
  46.2769175  60.3867245  80.4570675  44.9113607  59.4664955  82.0107651
  44.7400331  59.1336060  82.9488087  43.7498522  59.1747856  81.0820293
  44.1574574  58.5827589  80.2626038  42.7158880  58.2315493  81.7469215
  42.0396852  57.8240252  80.9954071  43.3316898  57.3810291  82.0393276
  41.8420172  58.8961744  82.8736305  41.5780783  59.8406744  82.3978519
  40.9570456  58.3422852  83.1868935  42.6178455  59.1855669  84.1603470
  43.5634613  58.4291935  84.5092487  42.2173500  60.1313925  84.9046612
  43.0974865  60.4385138  80.5316830  42.3924255  60.3719807  79.4896173
  43.2254171  61.5396643  81.2103844  43.8792658  61.4201736  81.9708538
  42.6300049  62.8198671  80.9854889  42.9479694  63.0975771  79.9805689
  41.1686230  62.8310013  81.2005329  40.7890224  61.8240881  81.0269642
  41.1018658  63.0192184  82.2720909  40.2565575  63.7347603  80.5210876
  39.5788026  64.7502089  81.1231709  39.7068715  65.1674128  82.1110630
  38.9138103  65.4208326  80.0775242  38.3454156  66.2082767  80.3549385
  39.1066480  64.8834753  78.8247061  38.4885120  64.9879265  77.6140594
  37.9746723  65.9156609  77.4099112  38.7011266  64.0148544  76.5745735
  38.2247949  64.1663790  75.6171989  39.4231009  62.8254795  76.8894958
  39.5214486  62.0801926  76.1140728  40.0373554  62.7081156  78.1407690
  40.7075071  61.8990135  78.3911037  39.8155093  63.7159204  79.1518593
  43.4168768  63.8669682  81.8060589  43.9123583  63.4624147  82.8983021
  43.3702230  65.1549196  81.4406204  42.9166317  65.7903528  80.1713467
  41.9803476  65.4084110  79.7644138  43.7701988  65.6518316  79.5077705
  42.9308367  67.2812653  80.4688454  41.9928360  67.5854111  80.9333324
  43.1448126  67.9630184  79.6457243  44.0435791  67.4424076  81.5633011
  43.8604927  68.3865261  82.0763493  45.0458145  67.4829292  81.1366940
  43.8310480  66.1788368  82.4085617  44.8528099  65.9420347  82.7052498
  42.8880978  66.3060808  83.6377239  41.6853952  66.1046267  83.4706593
  43.3310080  66.7317581  84.8668003  44.7545862  67.0009756  85.1966476
  45.1107645  68.0002451  84.9462414  45.4053402  66.2357330  84.7735405
  44.8339367  66.8223667  86.7305660  45.6968307  67.3706579  87.1085739
  44.9570656  65.7547760  86.9127274  43.4495449  67.3800087  87.0450592
  43.4742260  68.4650183  86.9438553  43.0962944  67.0878410  88.0339813
  42.5027800  66.7795277  86.0176849  42.1596956  65.7665920  86.2283039
  41.3458157  67.6055002  85.8921623  41.4731789  68.7117243  85.4528046
  40.1580858  67.0909166  86.1025238  40.1957512  66.0959339  86.2719154
  38.9331412  67.7499580  85.6924629  39.1092038  67.9123783  84.6291065
  37.6555705  66.9242382  85.9097958  37.9293251  65.8801460  85.7580185
  37.2133589  67.0869303  86.8926907  36.4065385  67.1937513  84.9830914
  36.5898085  66.9208241  83.9438438  35.2956080  66.2853479  85.5538654
  34.4650030  66.2498379  84.8489285  35.6494832  65.2647829  85.6998730
  34.7995949  66.5908480  86.4751339  35.7721162  68.5749626  85.0623226
  35.0565243  68.7485981  84.2586613  35.2718711  68.8782978  85.9820175
  36.5427852  69.3079090  84.8236752  38.8187265  69.1524839  86.3045788
  38.7333179  70.1167440  85.5354595  39.1034889  69.4565010  87.5930882
  39.2153287  68.6335516  88.1678486  39.2975926  70.7678413  88.2282448
  38.3038116  71.1671638  88.4308434  39.9058723  70.5360365  89.6969318
  39.9040604  71.4780712  90.2452755  39.4346738  69.7493458  90.2861595
  40.9658480  70.2853441  89.6556282  40.1897764  71.7186165  87.3935413
  40.0167036  72.9621887  87.3550320  41.3241482  71.1876869  86.8226147
  41.3804293  70.1795816  86.7967129  42.2640944  72.0254898  86.0811329
  42.4655771  72.8876162  86.7169380  43.5648823  71.2645435  85.6492710
  44.4453812  71.8932915  85.5169964  43.8862467  70.7006741  86.5249920
  43.3355761  70.2885866  84.6545887  42.6887751  69.6528339  84.9693298
  41.6787958  72.5792885  84.7534561  42.2090435  73.6271572  84.2753124
  40.6698990  72.0076466  84.1345406  40.2934361  71.1407948  84.4908333
  40.2892494  72.2991037  82.7159977  40.6965780  73.2541180  82.3841381
  40.8539295  71.0845995  81.8905830  40.6304646  71.1637115  80.8266735
  41.9409513  71.0794830  81.8102264  40.3137541  69.4772148  82.5257492
  41.4131308  69.1960335  83.2308865  38.7879658  72.4157953  82.5926685
  38.2635021  73.0002785  81.6393852  37.9851151  71.9338083  83.5461426
  38.3963680  71.4820004  84.3504047  36.5615368  71.9585085  83.4753132
  36.1169887  71.6872358  84.4328499  36.1627030  72.9718542  83.4286880
  35.8653259  71.1406898  82.4457359  34.6852875  71.2085581  82.3175526
  36.5564728  70.2511311  81.7818546  37.5401592  70.2393913  82.0106030
  36.1203480  69.3611956  80.6369305  35.0975132  69.5691586  80.3228092
  36.9705796  69.5593119  79.3211508  38.0020952  69.5177031  79.6709299
  36.7305827  68.5473680  78.1329679  37.2805500  68.8116646  77.2297621
  36.9727349  67.5376797  78.4646177  35.7215714  68.4869719  77.7251148
  36.7626166  70.9387398  78.7491989  36.8048954  71.6883945  79.5393467
  37.5865507  71.2327194  78.0989599  35.8306837  70.9446526  78.1838989
  36.1674047  67.9005051  81.0269260  37.2361183  67.4212742  81.2451363
  35.0087786  67.2423649  81.1720276  33.7013817  67.8709459  81.2969112
  33.2748222  67.9946041  80.3014946  33.7712383  68.8201189  81.8282223
  32.9036331  66.9502592  82.2217941  31.8402314  67.0736265  82.0166969
  33.1794357  67.0242691  83.2737255  33.3610797  65.5345440  81.7796612
  32.8747654  65.1535034  80.8816624  33.3204794  64.9160385  82.6762676
  34.8538089  65.8250618  81.5116405  35.4723549  65.6787348  82.3971272
  35.4135203  64.8385954  80.5192089  35.5333519  65.2084494  79.3143177
  35.7195568  63.5451412  80.8543682  35.7164693  62.9472113  82.2189236
  34.6603060  62.8428459  82.4673653  36.2043428  63.5992622  82.9434299
  36.5897608  61.6574192  82.1757317  36.0271978  60.7299423  82.2825241
  37.3806357  61.8298626  82.9057217  37.1490622  61.6469574  80.7143021
  37.1305227  60.6965542  80.1809311  38.2232571  61.8281221  80.7515430
  36.4295149  62.6930046  79.9019384  37.1784306  63.2751846  79.3650055
  35.5292821  62.0049429  78.8436174  34.6578598  61.2210560  79.1606808
  35.8861613  62.2509480  77.5095797  36.6446543  62.8558493  77.2287083
  35.0021577  62.0228291  76.3529110  35.3445101  62.7751398  75.6423283
  35.2727175  60.5252123  75.9178638  34.9642038  59.8437071  76.7106295
  34.8341513  60.2223873  74.9670458  36.7554712  60.2774811  75.5570316
  37.6538038  59.7080040  76.4909124  37.4310708  59.5345736  77.5333691
  39.0296483  59.6460009  76.0551310  39.7336245  59.1859531  76.7327595
  39.4187880  59.9674940  74.7393417  40.4564142  59.8561478  74.4612360
  38.4809041  60.6140375  73.8420057  38.7845874  61.0981846  72.9256105
  37.1435118  60.7245302  74.2838955  36.4626122  61.3326931  73.7069082
  33.4773684  62.3209620  76.5596581  32.6946282  61.4001513  76.3041544
  33.2103753  63.5044432  77.1239805  34.0354013  64.0703964  77.2623253
  32.0017314  63.8786507  77.8774929  31.1946869  63.5772276  77.2097158
  31.9382977  63.1172180  79.1855431  31.8022442  62.0607328  78.9543867
  32.8340816  63.2285070  79.7965240  30.7293773  63.6839676  79.9923038
  30.8562255  64.7638178  80.0692844  29.8051882  63.3465576  79.5231247
  30.8365440  63.3541489  81.4274311  31.7363381  62.7076006  81.8849373
  29.8333597  63.6482477  82.2242260  29.9779820  63.4169245  83.1966877
  29.3056679  64.4976521  82.0822525  31.9044518  65.4578543  77.9280663
  32.8653336  66.1435366  78.1770897  30.7930851  66.0216904  77.5225687
  29.9902534  65.4097891  77.4887943  30.5536318  67.5008011  77.4071217
  31.3077712  67.9854584  76.7870522  29.1723800  67.7274990  76.8342161
  28.4190798  67.2010088  77.4202585  28.8485789  68.7654018  76.9117594
  28.9725852  67.2416735  75.3545618  29.5269608  67.8468132  74.6372271
  29.2906404  66.2227869  75.1336288  27.4189544  67.3766994  75.2442122
  26.8434548  66.9024992  76.0392189  27.1724582  68.4384584  75.2455330
  26.9782233  66.7659998  73.8799381  27.3083210  65.7369900  73.7375259
  25.8912635  66.7420101  73.9576721  27.4258232  67.6691771  72.7711439
  28.4238911  67.5646639  72.6569748  26.9908977  67.3201942  71.9290352
  27.2044516  68.6322594  72.9798746  30.5837321  68.1898069  78.7195873
  30.3170085  67.6050282  79.7457218  30.8764052  69.5281935  78.7778854
  31.1052060  70.4134130  77.6269150  30.4539919  70.1462841  76.7946529
  32.1364474  70.4262638  77.2741032  30.8250093  71.7993546  78.0572605
  29.7536564  71.9291830  78.2104111  31.1917162  72.5229216  77.3291969
  31.5881705  71.6582489  79.3779135  31.4329743  72.4672318  80.0917530
  32.6214266  71.5899563  79.0375900  31.0670972  70.2846527  79.9717283
  31.8922758  69.8178768  80.5095959  29.7631741  70.4192019  80.8240509
  28.6528158  70.2712011  80.2578640  29.9267983  70.7011652  82.1491432
  30.8657908  71.0090351  82.3579788  28.8976884  70.8355618  83.1900215
  28.2562923  69.9833488  82.9654121  29.6333194  70.7237959  84.5460510
  30.3827047  71.5118074  84.6205616  28.8853598  70.9608364  85.3026676
  30.3970265  69.4539022  84.9767971  30.3237510  69.3640852  86.0606194
  29.7072196  68.2260275  84.4672680  29.6364307  68.2218313  83.3795834
  30.3227854  67.3647928  84.7270012  28.7856102  67.9188061  84.9615860
  31.8103433  69.4152641  84.5402431  31.9592023  69.2293358  83.4765911
  32.2489142  70.3374290  84.9215126  32.2313356  68.5516834  85.0551224
  27.9764175  72.0537996  83.0967236  27.0183492  72.1669817  83.8713646
  28.3232141  72.9526329  82.1513271  29.0205050  72.7448463  81.4508152
  27.9852200  74.3883753  82.2095490  26.9040656  74.4970131  82.2955990
  28.6639667  75.0852013  83.4294128  28.5966349  74.3918085  84.2677307
  30.1184154  75.5680704  83.3270931  30.3156281  76.2102318  82.4687004
  30.5030799  75.8657265  84.3025589  30.8154011  74.7719383  83.0653858
  27.8828907  76.2183666  83.6510658  27.1457243  75.9511852  84.2049599
  28.3588862  75.1467705  80.9233761  29.0458965  74.6505499  80.0190258
  27.7739596  76.3507175  80.8253193  27.2351718  76.6159868  81.6373825
  27.8195357  77.2114277  79.7023487  27.3279929  76.7548561  78.8432646
  26.9630909  78.4096527  80.0651455  25.9095788  78.1317854  80.0967979
  27.3316264  78.8324547  80.9997654  27.0914006  79.4900227  79.1356945
  26.6874456  80.2370071  79.5833969  29.2149448  77.7750444  79.3359852
  29.9936461  78.0589247  80.2760696  29.5174575  77.9320860  78.0184746
  28.7718868  77.5537491  76.8313885  27.7320361  77.8618813  76.9403315
  28.9483428  76.4816713  76.7441559  29.4083667  78.1977034  75.5873585
  28.7721348  78.9268160  75.0856590  29.5429134  77.4029303  74.8536491
  30.8431816  78.5955572  76.0728836  31.1450863  79.5612860  75.6675100
  31.6406322  77.9371977  75.7283068  30.8030462  78.5079098  77.6127195
  31.6635442  77.8751040  77.8299713  31.1722374  79.8208714  78.3238077
  32.3080754  80.1254272  78.7149572  30.1664972  80.6375122  78.5083818
  29.3056393  80.3734016  78.0509186  30.1848221  81.9060230  79.1310453
  30.8871388  82.5185776  78.5656881  28.7994790  82.5827599  78.9835119
  28.0752873  82.0789623  79.6236992  28.8214087  83.6371803  79.2588472
  28.4342837  82.3830986  77.5797367  29.0848637  82.9296970  77.1330070
  30.6226850  81.8930244  80.5862904  31.5016651  82.6398849  81.0058594
  30.0534463  80.9871674  81.3807964  29.3536329  80.3555393  81.0182953
  30.4093194  80.7033443  82.7771568  30.5911350  81.6449738  83.2952118
  29.3159366  79.8453236  83.4386921  29.3314433  78.8429499  83.0107880
  29.7390819  79.5795536  84.4074154  27.9153514  80.4810238  83.4438229
  27.9599500  81.4237785  83.9890957  27.7381992  80.7144547  82.3939610
  26.8186688  79.5415068  83.9676762  25.8523059  80.0449085  83.9389420
  26.8433976  78.7632561  83.2048988  27.0583725  79.0139961  85.2803135
  27.9534554  79.1844368  85.7160664  26.2724638  78.2342052  85.9476948
  25.2219677  77.6276112  85.4495621  24.9007964  77.8732729  84.5240307
  24.6897173  76.8850851  85.8802223  26.5545416  77.7979136  87.1309948
  27.4409032  78.0265856  87.5578117  25.8632016  77.3231936  87.6938343
  31.7642903  80.1130581  82.9178047  32.5666976  80.6710243  83.6668873
  32.1117163  79.0337563  82.1851826  31.4448619  78.6860371  81.5110207
  33.4641504  78.4388971  82.1658993  33.6323309  78.1838417  83.2122135
  33.4083772  77.1750546  81.2728596  32.8642440  76.4817715  81.9142532
  33.0589676  77.5204086  80.2998447  34.7721386  76.4633274  81.1241436
  35.2235842  76.4670467  82.1162510  34.4859195  74.9799776  80.8047390
  33.8039422  74.4781399  81.4911556  34.1143084  74.8900414  79.7839975
  35.4252100  74.4392729  80.9208202  35.7169700  76.9478226  79.9842310
  36.6403627  76.3686752  79.9782276  35.1831794  76.6465235  79.0829039
  36.0171938  77.9923391  80.0675583  34.5627785  79.5021534  81.8543148
  35.6222510  79.6263790  82.4777985  34.2819166  80.2517891  80.7834435
  33.3736038  80.2636623  80.3419399  35.2514148  81.3097477  80.3566933
  36.2693214  80.9210587  80.3268814  34.9730849  81.8101120  78.9444733
  35.7133317  82.5517464  78.6442995  35.0429988  80.9709930  78.2523060
  33.7351346  82.4733353  78.9451361  33.0710816  81.7839622  78.8716221
  35.4135537  82.4641991  81.3362980  36.5352392  82.8159714  81.7343330
  34.2899108  82.9109383  81.8947315  33.4465218  82.5042915  81.5160084
  34.1871381  83.7828732  82.9968071  34.7588372  84.6784306  82.7534008
  32.6361060  83.9762974  83.3006573  32.3311996  84.5629692  82.4340820
  32.1300745  83.0129051  83.3631229  32.1627283  84.7449398  84.5274448
  32.9119253  84.6514702  85.3136158  32.2937846  85.8036423  84.3036747
  30.8094668  84.4406319  85.0110817  30.5541778  85.2050400  85.7449818
  30.0388455  84.5034695  84.2427826  30.8389592  83.0603886  85.5440617
  31.7542815  82.6533985  85.6731129  29.8273730  82.3663425  86.1197090
  30.1192808  81.1726093  86.4696121  31.0814524  80.8743095  86.5427399
  29.4409013  80.6393147  86.9945049  28.6065245  82.8294563  86.0840607
  28.2701445  83.6769295  85.6496048  27.9455686  82.2064018  86.5256882
  34.8631811  83.2721615  84.2497253  35.4479504  84.0822124  84.9361897
  34.7409201  82.0100117  84.5310211  34.0655398  81.4527225  84.0276337
  35.4202986  81.4586544  85.6733418  35.3460813  82.1200848  86.5365410
  34.8222113  80.1347542  86.0574436  34.9456334  79.6956587  85.0674629
  35.4483795  79.6394920  86.7995548  33.3330274  80.2417469  86.4655113
  32.8175259  81.3419247  86.7327690  32.6260853  79.2157936  86.4488411
  36.9137502  81.2854290  85.5362797  37.6865387  81.6362190  86.4296627
  37.4407983  80.8579731  84.3627548  36.7792225  80.5277920  83.6747169
  38.8007593  80.9486771  83.9501667  39.3415141  80.4816914  84.7733402
  39.0052795  80.1257515  82.6916122  38.5849142  80.5954361  81.8023491
  40.0831985  80.2755833  82.6304626  38.5911441  78.6763287  82.8359032
  38.5267973  77.8162718  81.7418575  38.3336568  76.5777206  82.2368622
  38.2391596  75.6929350  81.6247845  38.2819366  76.6445160  83.5905457
  38.1423855  75.8198643  84.1567421  38.5545969  77.9450798  84.0680599
  38.5486388  78.4396124  85.0281715  39.3912482  82.3821259  83.6843967
  40.5995750  82.4388409  83.8149261  38.5872602  83.4664726  83.6008167
  37.6020646  83.3242416  83.4297562  39.0876293  84.8756218  83.3659744
  39.8098135  84.8481083  82.5500202  37.8981137  85.7798672  82.9508591
  38.3103609  86.6703606  82.4763298  37.3575544  85.2724171  82.1518612
  37.3364139  86.1277771  83.8177776  39.8721075  85.4492569  84.5494270
  40.5761719  86.4143658  84.3438435  39.7871757  84.8928547  85.7623482
  39.1328835  84.1313839  85.8726311  40.5108309  85.3383350  86.9756508
  40.5409527  86.4278030  86.9599819  39.6474457  85.0814342  88.2442665
  40.2057076  85.4423237  89.1080952  38.2540679  85.6473541  88.2367802
  37.6778913  85.3108597  87.3748589  37.8216863  85.4154968  89.2101192
  38.3723164  86.7308331  88.2506084  39.4744635  83.6778355  88.4352303
  40.3358078  83.3127022  88.6505604  41.9830322  84.7487068  87.1377182
  42.6816273  85.1587200  88.1009865  42.3993778  83.8174057  86.2292767
  41.7365980  83.6495209  85.4858780  43.6606359  83.1655693  86.1988163
  43.8687611  82.8199768  87.2114182  43.5756111  81.9324684  85.2628803
  43.2992983  82.4255466  84.3308830  44.5827723  81.5187645  85.2121925
  42.5941181  80.8273602  85.7566071  41.6589594  81.3261604  86.0111332
  42.3898363  79.7768641  84.7308731  42.2382450  80.2706909  83.7710476
  43.2273006  79.0806866  84.6851635  41.5019655  79.2384768  85.0624275
  43.0296803  80.1343060  87.0563698  43.2434416  80.9088230  87.7929401
  42.2946072  79.3968725  87.3788071  44.0068579  79.6801949  86.8920422
  44.6875858  84.0316391  85.5957794  44.4422531  84.8674107  84.7504330
  45.9972763  83.7488270  85.8893585  46.1148071  83.0394840  86.5986633
  47.2397566  84.3247223  85.3654575  47.2774124  85.3883934  85.6006050
  48.4291887  83.5782719  86.0515594  48.5100365  83.8439083  87.1056080
  48.3803654  82.4906826  85.9980106  49.6640539  83.9535713  85.3319740
  49.9780941  83.3765507  84.3776989  50.3274822  84.9395943  85.7522011
  51.1621046  85.0697231  85.1985168  50.3296900  85.1878548  86.7312145
  47.2917032  84.1645145  83.8249302  46.7885494  83.1977844  83.3327103
  47.6705265  85.2300072  83.1187439  48.0665779  86.0313225  83.5890007
  47.3623037  85.3681278  81.7056751  46.2848139  85.3982162  81.5437794
  47.8141499  86.2875462  81.3333607  47.9908752  84.2671776  80.7689381
  47.4730444  83.9736557  79.6471596  49.1666412  83.7343407  81.0749722
  49.5585823  83.9104080  81.9890213  49.7384644  82.6403809  80.3693199
  49.7232914  82.9643536  79.3286800  51.2043953  82.4714851  80.7569313
  51.4724445  81.5217209  80.2941036  51.8425751  83.2215977  80.2898502
  51.4132357  82.3533630  81.8201923  49.0018415  81.3461590  80.7653618
  48.7062025  80.5488491  79.9018526  48.4669685  81.2504101  81.9972229
  48.6950731  81.9312859  82.7074814  47.5978613  80.0443363  82.2491455
  48.0944109  79.1363096  81.9070530  47.4740076  79.9551868  83.7766647
  48.4599638  79.6636105  84.1385651  47.0700693  80.8623028  84.2261887
  46.5315151  78.7976837  84.2754555  45.4982185  78.9758015  83.9776611
  46.8873930  77.3544359  83.8327980  46.9802332  77.2747898  82.7496815
  47.8326988  77.0298004  84.2676640  46.0980654  76.7115259  84.2223167
  46.6230297  78.6996508  85.7787991  46.7708254  79.6789503  86.2340260
  45.7919359  78.1810760  86.2567806  47.4547338  78.0707788  86.0964298
  46.2325335  80.1600266  81.5655708  45.5807304  79.1511202  81.2528038
  45.7224703  81.3854694  81.2574196  46.0785675  82.1953964  81.7445660
  44.6072483  81.5974236  80.3077507  43.8057327  80.9375668  80.6398201
  44.1850615  83.0814838  80.1365185  45.1058626  83.5659599  79.8116875
  43.5261631  83.1086826  79.2686367  43.6805391  83.7047672  81.4059925
  42.8973436  83.0468941  81.7827034  44.4747400  83.7146378  82.1524715
  43.1227493  85.0849342  81.2141895  42.7894783  85.5652618  80.1790428
  43.0686998  85.7824993  82.3355961  42.9457140  86.7832565  82.3943043
  43.3913183  85.4276466  83.2244682  44.8879051  81.0100937  78.8997698
  44.1657400  80.0929356  78.4801292  45.9680796  81.4364529  78.3101177
  46.4285374  82.2681999  78.6511135  46.4959526  80.8341980  77.0418596
  45.7203054  81.0656738  76.3118649  47.7878141  81.6287136  76.6550398
  47.5654793  82.6693439  76.8911648  48.6152697  81.3428211  77.3044157
  48.3402967  81.5975857  75.2173185  47.9713964  82.6308250  74.3080473
  47.3601198  83.4387207  74.6822882  48.6522341  82.7572250  73.0289125
  48.4899330  83.6154747  72.3937178  49.5991802  81.7661762  72.6564550
  50.2027607  81.9272423  71.7754650  49.9071360  80.6996822  73.5791826
  50.5076981  79.8616123  73.2576799  49.2398787  80.6645393  74.8431253
  49.5537376  79.9005795  75.5390167  46.7531919  79.3472242  77.0185852
  46.4350224  78.7194777  76.0299349  47.2956133  78.6805868  78.1046057
  47.7050686  79.3045425  78.7851381  47.4329138  77.2071838  78.2632017
  48.0243254  76.7604256  77.4639893  48.2451677  76.9633818  79.4677544
  47.7677011  77.2926331  80.3906441  48.4695244  75.9041929  79.5938158
  49.1109753  77.6254988  79.4583035  46.0377550  76.6046810  78.3395910
  45.6829500  75.5973625  77.6935863  45.2054930  77.1932268  79.2476130
  45.4423380  77.9565191  79.8651791  43.8862133  76.6309309  79.4886208
  44.1153193  75.5803967  79.6674824  43.3529186  77.2810745  80.7302094
  43.3743048  78.3656025  80.6232071  41.8827343  77.0256281  81.0591316
  41.5307903  77.8650570  81.6587925  41.1984253  77.0213032  80.2107239
  41.7926979  76.1416292  81.6904354  44.0727377  76.9815731  81.8079281
  44.7350883  77.6633453  81.9423485  42.9730511  76.7303467  78.2236099
  42.1686268  75.7743216  78.0373001  43.2061625  77.6254082  77.2189474
  43.7688398  78.4119320  77.5102949  42.2510862  77.6298714  76.0265255
  41.2004423  77.5262260  76.2976646  42.4641323  78.7598085  75.0437737
  43.5291243  78.7940121  74.8141718  41.9980860  78.5189676  74.0883207
  41.8714762  80.0377655  75.6491804  40.9150028  79.8012352  76.1153603
  42.5968504  80.5409050  76.2885380  41.6678953  80.9818935  74.4379568
  42.5606775  80.9711456  73.8127184  40.8198690  80.6378555  73.8458395
  41.3102150  82.4689007  74.7971678  42.0454216  82.8234482  75.5195761
  41.3872528  83.0376816  73.8705301  40.0167990  82.6774311  75.4415846
  39.9029565  82.2321606  76.3409567  39.6756482  83.6275959  75.4115486
  39.3135142  82.2599602  74.8489475  42.5569820  76.3169765  75.2036333
  41.6361284  75.8112192  74.6280193  43.7505579  75.7858801  75.1727772
  44.3373871  76.1841154  75.8919001  44.1323709  74.4943953  74.4870663
  43.6682367  74.5030689  73.5008574  45.6273222  74.4628620  74.3190718
  45.8443213  75.3213835  73.6834955  46.1496782  74.5390654  75.2727127
  46.1512709  73.2287264  73.6209536  46.1427593  72.2888470  74.1729069
  45.4315281  73.0293560  72.8270197  47.5906467  73.5070610  72.9698038
  48.2499552  74.5383215  73.1492710  48.0562735  72.6062679  72.1450472
  48.9368439  72.7604342  71.6750097  47.4761152  71.8018770  71.9540691
  43.6385441  73.3048391  75.3599453  42.9502153  72.4232531  74.8831940
  44.0294456  73.2554531  76.6642952  44.6399641  73.9866495  77.0000315
  43.7446928  72.1814871  77.6339340  43.9748049  71.1925602  77.2374678
  44.6739721  72.4167871  78.8264370  45.0400114  73.4434843  78.8232040
  44.0414572  72.1396828  79.6697855  45.9160805  71.4610958  78.8191938
  45.5168104  70.4470825  78.7974405  46.8491220  71.7931461  77.6726246
  47.2420311  72.8080463  77.7335262  47.6750612  71.0929441  77.7976894
  46.4205265  71.5636539  76.6970539  46.5813017  71.5802908  80.2072620
  47.5444126  71.0786724  80.1129436  46.7892265  72.6283312  80.4228783
  45.9793282  71.1782455  81.0221767  42.2473288  72.1951771  78.0395555
  41.8772221  71.2497139  78.7108755  41.4418077  73.1371927  77.5421429
  41.8779039  73.8663816  76.9960642  39.9332857  73.0381632  77.6229858
  39.6533418  72.0848513  78.0712366  39.3387794  74.2058992  78.4125662
  38.2714367  74.0516901  78.5709953  39.7824311  74.3058777  79.4031572
  39.4609332  75.4690361  77.8046513  40.3129387  75.8120966  78.0839348
  39.2180371  72.9589272  76.2028408  38.6428022  71.9699717  75.8450174
  39.2814255  74.0183020  75.3831911  39.7757578  74.7955036  75.7975578
  38.4514856  74.2141485  74.1809654  37.4409080  73.9974785  74.5272160
  38.5064101  75.6628752  73.5822392  39.5241189  75.9363317  73.3036900
  37.7761555  75.7347918  72.7762270  37.9305840  76.7516279  74.5058393
  37.0051003  76.4590216  75.0017834  38.6414981  76.9772387  75.3006983
  37.6374030  78.0730867  73.7711430  38.5557318  78.3458614  73.2511759
  36.7623687  77.8863716  73.1486082  37.3388338  79.1932297  74.6451521
  37.5359797  79.0669250  75.6276369  36.5998459  80.2577496  74.3437338
  36.0283113  80.3992367  73.1780481  35.9877396  79.6206999  72.5359154
  35.4525852  81.2262344  73.1094885  36.2406135  81.1342525  75.2395487
  36.5879345  81.1750126  76.1870766  35.7198644  81.9060230  74.8480272
  38.8023567  73.2551861  72.9962635  37.9674125  72.4521160  72.6040316
  40.0492477  73.2660341  72.5546265  40.5768156  74.0227556  72.9658937
  40.6285238  72.2418547  71.6602087  40.1879454  72.2330856  70.6632566
  42.1107340  72.5222588  71.4532423  42.4708843  72.6350880  72.4758196
  42.9586124  71.4089870  70.7572079  43.8926363  71.7480326  70.3091574
  43.1003666  70.6176805  71.4933062  42.3095894  71.0132122  69.9760342
  42.3424196  73.7065887  70.8273745  42.5071096  73.4584904  69.9147272
  40.4814720  70.8027124  72.1666861  40.1429987  69.9242735  71.4025879
  40.5953884  70.5357885  73.4791851  40.9469748  71.2218618  74.1317177
  40.3632498  69.1799212  73.9210844  40.8030176  68.4644985  73.2261896
  41.0174036  69.0362310  75.3128624  42.0724869  69.2269087  75.1165581
  40.8909702  69.8619938  76.0130310  40.7682037  67.7036953  76.0438347
  39.7257042  67.5829649  76.3383150  41.2169313  66.4483881  75.1703405
  40.9014750  65.6484938  75.8402300  40.6140184  66.5021086  74.2638540
  42.2804546  66.4897299  74.9351501  41.4764452  67.6492977  77.3833990
  42.5528383  67.5093269  77.2839689  41.2952852  68.5910368  77.9014826
  41.0941935  66.7412329  77.8496647  38.8874269  68.8960838  74.0315819
  38.4947157  67.7559710  74.1570377  37.9656076  69.8955917  74.0232944
  38.1941795  70.8400726  73.7479687  36.5038061  69.5890522  73.9768553
  36.2198997  68.9482594  74.8116493  35.7061386  70.8575106  74.2883587
  35.7002282  71.5197563  73.4226274  34.6958160  70.4548359  74.3604994
  36.0167527  71.3599348  75.5490398  36.9389462  71.6197443  75.6095409
  35.9802413  68.9882898  72.6648712  34.9257493  68.3529854  72.6031399
  36.8202400  69.0951586  71.6193867  37.6131558  69.7078419  71.7459106
  36.6184115  68.5945940  70.2502537  35.7328081  67.9652643  70.1621866
  36.4304352  69.7737932  69.2741013  36.5105581  69.2112398  68.3439350
  35.4123116  70.1629162  69.2636251  37.5729394  70.8347178  69.3247175
  37.7596617  71.3500261  70.2668905  38.4635663  70.2148819  69.2213202
  37.4516916  71.8465805  68.1660366  38.4489727  72.2214699  67.9358482
  37.1153235  71.3926601  67.2338772  36.6397548  72.9898548  68.6016655
  36.5265417  73.1483412  69.5927048  35.8552575  73.7192345  67.8201199
  35.8911419  73.5471058  66.5514565  36.5107942  72.8620672  66.1429834
  35.3855228  74.1508102  65.9190083  34.9716616  74.5597792  68.2131529
  34.8032951  74.7910213  69.1818047  34.3748331  74.8736906  67.4612522
  37.7380157  67.6304150  69.8894596  38.2874632  67.5817537  68.7726498
  38.1087422  66.7422247  70.8277607  37.6254225  66.8811131  71.7036676
  38.5113621  65.4252291  70.4707146  39.5629001  65.5229378  70.2008581
  38.3145690  64.5388317  71.7327309  37.3052049  64.3313360  72.0880127
  38.6525822  63.5759258  71.3497686  38.9227819  64.9622488  72.5320339
  37.6820254  64.8368025  69.2652178  36.4117050  64.8256922  69.2397404
  38.4337115  64.3312120  68.2612085  39.4176984  64.5587683  68.2706404
  37.9202843  63.6336374  67.0634270  37.1358848  64.2738819  66.6598034
  39.1115403  63.4210539  66.1258984  39.9256659  62.8480959  66.5697670
  38.7870359  62.9527235  64.7344923  39.5830441  63.0071640  63.9918566
  38.2888079  61.9842291  64.7778845  38.0607057  63.6656141  64.3442059
  39.6259165  64.7045374  65.9171152  40.5248499  64.5257473  65.6315422
  37.2785974  62.3590851  67.4394369  37.7080202  61.6638660  68.3586168
  36.2910724  61.8151665  66.6164684  35.5867100  62.4906301  65.5293608
  36.0916686  62.3482418  64.5739317  35.4986691  63.5611677  65.7145548
  34.2505193  61.7302561  65.3412437  34.0544677  61.6710329  64.2706585
  33.5094953  62.3076820  65.8940172  34.4385004  60.3518486  66.0131550
  34.4729137  59.5976305  65.2269840  33.6411953  60.1010799  66.7128086
  35.7651162  60.4627895  66.7342758  35.5756354  60.5102062  67.8066301
  36.7470455  59.3571711  66.2412548  36.9032931  59.0586996  65.0482559
  37.4869347  58.7561798  67.2072029  37.2514915  59.1038656  68.1257820
  38.5961342  57.7822590  66.9783163  38.6356902  57.3449278  65.9806776
  39.8767853  58.5794449  67.1537876  39.8683310  59.0092564  68.1554365
  41.1002350  57.6661491  67.1389914  41.3299131  57.4145079  66.1036062
  41.9573116  58.2725048  67.4320078  41.1258602  56.8718338  67.8849888
  40.0192308  59.5629740  66.0740471  39.8909998  59.0547943  65.1183224
  39.2172217  60.2911139  66.1952591  41.3772678  60.3615236  66.0344315
  41.7350292  60.5305672  67.0500755  42.1423197  59.8069954  65.4910231
  41.3184834  61.3211632  65.5208826  38.5353804  56.6305733  68.0627728
  38.3386517  56.8698025  69.2928171  38.6523867  55.3501177  67.6418209
  38.6077189  54.8409367  66.2361193  39.6136785  54.9067736  65.8216143
  37.9668045  55.3308344  65.5030918  38.0491042  53.4520292  66.3551331
  38.2945752  52.7281952  65.5780172  36.9665909  53.4334135  66.4813137
  38.6915660  52.9941034  67.6503372  39.6394825  52.5671768  67.3227787
  38.0130911  52.2808933  68.1184196  38.7568712  54.1881466  68.5223007
  37.8655291  54.2494202  69.1466856  39.9458480  54.1931295  69.4614363
  41.0078478  54.5850945  68.9730835  39.8146033  53.6504221  70.6757641
  38.8845658  53.3234882  70.8954144  41.0406828  53.2972717  71.5032816
  41.6256046  54.1951799  71.7025900  40.5641747  53.0313444  72.8953362
  39.9177814  53.8117695  73.2968569  39.8456001  52.2133112  72.9460669
  41.6852903  52.6851082  73.9045572  41.3263607  51.8722582  74.5358658
  42.5468779  52.2623014  73.3878326  42.2491598  53.8993263  74.6520805
  42.3318815  55.0233459  74.1175270  42.7381754  53.7179756  75.8091450
  41.8989706  52.1705055  70.9090328  41.4167309  51.0590553  70.6817675
  43.2148409  52.4397802  70.7035303  43.5732794  53.3333826  71.0086489
  44.2395782  51.5504313  70.0709200  43.8032675  51.3198996  69.0990210
  45.5614901  52.2663498  69.9444008  45.9277582  51.9585705  68.9650059
  45.2681208  53.3052969  69.7940063  46.6791582  52.1448421  71.0069036
  46.4345789  52.0602131  72.4407434  45.4405499  52.2358418  72.8247547
  47.5127840  52.1024418  73.3449173  47.3086500  52.0739841  74.4050694
  48.8443947  52.0058012  72.8807116  49.9435234  51.9184875  73.6698580
  50.6227064  52.3400736  73.1382799  49.1066074  52.0907450  71.4744711
  50.0952768  52.0273972  71.0444546  47.9747057  52.1720123  70.5592918
  48.0814981  52.1536350  69.4847441  44.5005798  50.2290201  70.7493305
  44.1309738  49.9914598  71.8839931  45.0946140  49.2874193  69.9535179
  45.3394699  49.6051884  69.0266037  44.9853659  47.8580809  70.2076817
  44.2034054  47.6517344  70.9384775  44.7675276  47.1924019  68.8919497
  45.3358793  47.6363039  68.0746222  45.1580667  46.1760855  68.9437628
  43.3362532  47.1018171  68.4659004  42.7887201  46.5296698  69.2148685
  42.5544834  48.4345627  68.1756163  41.5691566  48.2246637  67.7594757
  42.4884510  49.0421629  69.0781450  43.0934143  48.9958334  67.4123096
  43.4449768  46.2323570  67.2196960  43.8978338  46.8443108  66.4396095
  43.8508129  45.2395439  67.4139404  42.4552059  46.0853434  66.7874384
  46.3863659  47.2766495  70.8666706  46.3523722  46.0682535  71.2861919
  47.4336100  48.0044556  70.8489752  47.4654675  48.7399721  70.1575327
  48.6777020  47.5794983  71.4827204  49.4901514  48.3056211  71.4549160
  48.4676981  47.1933651  72.9940176  47.7929878  46.3515949  73.1498909
  49.3857479  46.8396854  73.4632635  48.0030394  48.3810377  73.7978411
  48.7629175  49.1597605  73.7324762  47.1201563  48.8241816  73.3371449
  47.6830196  48.0380726  75.2424908  46.8203497  47.3878574  75.3877926
  48.4703541  47.3724079  75.5961800  47.6566124  49.2395973  76.1597776
  48.6237144  49.7378111  76.2275887  46.9143152  49.9949217  75.9017467
  47.2275639  48.7361908  77.5435352  47.6898241  47.8689957  77.7767229
  47.3551226  49.4743013  78.2210541  46.2809944  48.3947563  77.6303005
  49.4032001  46.4719629  70.6580257  49.9514008  45.5853891  71.2542248
  49.3551970  46.5397978  69.3400049  49.1106844  47.4434853  68.9609718
  49.9516916  45.6530952  68.3483315  49.2911339  44.8009968  68.5086298
  49.6106148  46.2425661  66.9671249  48.5448074  46.4697838  66.9441843
  50.0451088  47.2302485  66.8128443  49.9981022  45.3134346  65.8057213
  49.7798538  45.9637737  64.9586487  51.0760260  45.1525545  65.8229589
  49.2472076  44.0052128  65.8897877  49.7130489  43.0438042  66.4692211
  48.1076670  43.8941097  65.1677322  47.5346518  43.0687380  65.2703190
  47.7720308  44.7174215  64.6885633  51.4536095  45.3533316  68.6348629
  52.2301865  46.3342094  68.8034201  51.8955183  44.1581964  68.3606434
  51.2062740  43.4430075  68.1774855  53.3528662  43.8756132  68.4122086
  53.9085054  44.7851658  68.1839943  53.7985659  43.3585644  69.8972559
  53.0077028  42.6413727  70.1169634  55.1633358  42.6523352  69.8328972
  55.1632643  41.7023993  69.2983675  55.7161999  43.3857965  69.2459774
  55.6642580  42.4876356  70.7868624  53.6246157  44.3962336  71.0119009
  52.5770235  44.6944475  71.0534096  53.8346338  43.9018822  71.9603777
  54.5064116  45.5705643  70.7827139  54.3053532  46.3411474  71.5269423
  55.5081272  45.1831245  70.9686136  54.3327665  46.0999727  69.8458767
  53.7753677  42.8681946  67.3257256  53.3929205  41.7095947  67.4055243
  54.4814396  43.3351517  66.2923717  55.0265789  44.7123003  66.1639261
  55.7870245  44.8643923  66.9298840  54.2273951  45.4399538  66.3050938
  55.6192589  44.7388077  64.6466780  56.5547085  45.2980947  64.6313524
  54.7584057  45.1128674  64.0925026  55.9367847  43.2933426  64.3805838
  56.9051313  43.0600739  64.8232985  55.9178877  43.0777264  63.3122921
  54.8621511  42.5401211  65.1218271  53.9983177  42.5162315  64.4574976
  55.2451706  41.0695362  65.4125547  56.1696243  40.7656336  66.1554050
  54.5841599  40.0924826  64.7723961  53.7344742  40.2492428  64.2493582
  55.0543165  38.7042761  64.8198605  55.1151609  38.5163736  65.8918190
  53.9439344  37.8249764  64.2639112  53.8010073  38.1021905  63.2194853
  54.1928911  36.7674065  64.1763496  52.7257729  37.8139234  65.1622868
  52.8530550  37.6116514  66.4062548  51.5028620  37.9386806  64.6638203
  50.7610369  37.7291465  65.3164196  51.2591076  38.1434751  63.7053108
  56.3610840  38.5551190  64.1656590  57.2989321  38.0304670  64.8017931
  56.4686012  39.0657830  62.9339218  55.7284975  39.6598959  62.5884008
  57.5969601  38.7134933  62.0545387  57.8316450  37.6645875  62.2356939
  57.2584391  39.0503716  60.5785847  58.0356979  38.6718678  59.9147224
  56.2441158  38.6997604  60.3879929  57.0710421  40.4949903  60.5263329
  56.2105370  40.7054329  60.8962631  58.9230824  39.5186925  62.3771524
  59.8897314  39.2557526  61.6825962  59.0623093  40.2431917  63.5353565
  58.2938480  40.1295805  64.1808462  60.2083492  41.0223532  64.0310144
  61.0776472  40.8189154  63.4056854  59.8838902  42.5108385  64.0610600
  59.0501881  42.8054380  64.6984386  60.7092953  43.0492306  64.5268393
  59.4023561  42.9960775  62.3835754  60.5157328  42.6112652  61.7533255
  60.4833412  40.5384588  65.4801178  59.8482800  39.6645689  66.0718679
  61.4943552  41.1284828  66.0818291  61.9620657  41.8578243  65.5627775
  62.0776606  40.7750416  67.4003077  61.2740898  40.6926394  68.1321430
  62.8103113  39.3709660  67.3202324  62.1002436  38.5629439  67.1441555
  64.0296125  39.2887378  66.2977171  64.4095278  38.2694077  66.2288904
  63.7030458  39.7110462  65.3473949  64.8887300  39.8128629  66.7164135
  63.4935856  38.9735937  68.6885881  64.2200470  39.7427368  68.9508438
  62.7394724  39.0506911  69.4718361  64.0142202  38.0179524  68.7502050
  63.0555344  41.8586636  67.8175783  63.7228680  42.4463177  66.9711447
  63.1539774  42.0473146  69.1615915  62.3961973  41.8310928  69.7933483
  64.3206644  42.6148987  69.8479271  65.2386236  42.3420238  69.3273592
  64.1348267  44.1743088  69.8806286  64.8880386  44.5915794  70.5489683
  64.1404676  44.5639801  68.8626814  62.9408264  44.4997454  70.5353022
  63.0274963  44.7964287  71.4441824  64.4250393  42.0817709  71.2651348
  63.4917641  41.3662195  71.6895485  65.4394770  42.3569584  72.0546246
  66.1620712  42.9915047  71.7458916  65.4250336  42.2169685  73.4788942
  64.6253300  41.5713358  73.8418579  66.3220501  41.7224455  73.8515902
  65.3071213  43.6820602  73.9576721  64.4175148  44.4423866  73.5246849
  66.2700701  44.0732479  74.8091125  66.8170738  43.3368206  75.2316809
  66.4437675  45.5160904  75.0352240  65.4530525  45.9607506  75.1293421
  67.1167755  45.6852722  76.3529158  68.0878019  45.2304792  76.1570215
  66.5744495  45.2939844  77.2136593  67.5546837  47.4599791  76.6527319
  67.0506859  46.1752415  73.8359928  68.1503582  45.8886909  73.5107756
  66.2720060  47.0405960  73.1367588  65.3555441  47.2433710  73.5096836
  66.7051125  47.8189850  71.8716955  67.4201441  47.1937466  71.3369942
  65.4471540  47.9721689  70.9428072  65.7611179  48.4357691  70.0076056
  65.0431156  46.9907379  70.6945324  64.2955828  49.0276909  71.8767166
  63.1274509  48.7077379  71.3127995  67.4628830  49.2122984  72.0859623
  68.0600977  49.7893381  71.1997509  67.3583937  49.6454287  73.3902645
  66.6809273  49.2059755  73.9969110  67.9870510  50.8651161  73.9721346
  67.4888706  51.6780472  73.4438658  67.6493263  50.9417677  75.4771948
  68.0021381  51.8655443  75.9357452  68.1479263  50.1681137  76.0611153
  65.8625984  50.8129549  75.8162928  69.4603682  51.0753679  73.6299419
  69.8652029  52.1938133  73.3179283  70.2819204  50.0445747  73.8374519
  69.8777628  49.1858482  74.1829205  71.7426157  50.0989294  73.6026287
  72.2773886  50.6258488  74.3928623  72.1956873  49.1081429  73.6369133
  72.0763683  50.7321978  72.2409725  72.6812935  51.8117571  72.1776962
  71.8607998  50.1098156  71.0555553  71.4210796  49.2010069  71.0840082
  72.2593498  50.5197620  69.6861362  73.3232498  50.7310486  69.7937775
  72.0930195  49.3132448  68.7009144  72.2483397  48.3297205  69.1443825
  71.0450506  49.3094015  68.4011602  72.9252291  49.3047619  67.4354362
  74.2319059  49.3342972  67.3691177  74.8501682  49.4945955  68.2400131
  74.6359396  49.2640352  66.0749149  75.6017447  49.1673040  65.7956839
  73.5720778  49.1067219  65.1919031  73.4904432  48.8599634  63.8018656
  74.3657732  48.8335228  63.1698036  72.2197008  48.7746859  63.2068634
  72.1217585  48.6552572  62.1379662  71.1146688  48.8221788  64.0539789
  70.1163244  48.6790085  63.6676931  71.1423779  48.9896488  65.4112148
  70.2701664  49.0113211  66.0477543  72.4509382  49.1685724  66.0907650
  71.6317940  51.7939615  69.2029667  72.2632074  52.5346279  68.4580469
  70.4493618  52.1568203  69.7123671  69.9418974  51.4931440  70.2799177
  69.9639130  53.4669399  69.5467043  70.0956345  53.7904453  68.5141850
  68.5112381  53.4812784  69.8902702  68.4115076  53.3052301  70.9613276
  68.2179165  54.5139933  69.7017002  67.5369167  52.5084639  69.2204332
  68.0196953  51.5437889  69.3767452  66.1104727  52.5269985  69.6883106
  65.6355572  51.5672970  69.4845533  66.1997747  52.5112772  70.7745314
  65.6333399  53.4650803  69.4046688  67.3952150  52.7313089  67.7033615
  67.0206070  53.7510729  67.6147556  68.3532095  52.5460672  67.2175264
  66.5823507  52.1446562  67.2753429  70.7796669  54.4919968  70.3482533
  71.1773729  55.5184889  69.7800207  71.1350489  54.2574024  71.5752697
  70.8588982  53.4208822  72.0693111  71.9942617  55.1500940  72.3287153
  71.4439774  56.0829592  72.4514341  72.3307180  54.7378206  73.7694836
  73.0012417  53.8803482  73.7125635  72.9482651  55.7586432  74.6727657
  74.0083027  55.6596518  74.4390583  72.4932289  56.7340088  74.5004129
  72.7203894  55.5749702  75.7227373  71.1123991  54.4368839  74.3674040
  70.8519936  53.6058044  73.9635468  73.3574533  55.3254080  71.7169762
  73.8187361  56.4861822  71.7267799  74.0897608  54.3164587  71.1923075
  73.5894203  53.4510994  71.3369513  75.3568411  54.3418121  70.3549385
  76.1793137  54.7298241  70.9558392  75.8764791  52.9474640  69.8917246
  75.2218437  52.4226093  69.1959667  76.8282032  53.0616808  69.3728018
  76.1051130  52.0245600  71.0562658  76.6229343  52.5741100  71.8423653
  75.1425314  51.6743422  71.4289379  76.8721676  50.8054781  70.7096624
  76.3300943  50.2976799  69.9119139  77.8899050  51.0099983  70.3772688
  76.9096947  49.8796368  71.9403172  77.4624014  50.3601122  72.7476311
  75.9056997  49.7028637  72.3261356  77.5823832  48.5944223  71.6019821
  78.5809135  48.6580610  71.4641523  77.5963211  47.8951359  72.3306179
  77.1567774  48.0755568  70.8471727  75.0625849  55.2389002  69.1425800
  75.7327366  56.2473154  69.0052652  74.0197372  54.9345779  68.3009768
  73.5068226  54.0671635  68.3689117  73.7535572  55.7647657  67.1028805
  74.6932650  55.7525826  66.5507030  72.6182461  55.0595284  66.2382793
  71.6857719  55.2311134  66.7759991  72.5286436  55.6555986  64.8809624
  73.1061745  55.0629377  64.1715145  71.5315962  55.6716347  64.4407940
  72.9187202  56.6728163  64.8462582  72.7976847  53.6258841  66.0626316
  72.5782919  53.2703495  66.9269609  73.4578514  57.2113228  67.4109411
  73.9618731  58.1496191  66.8043613  72.7488804  57.4602365  68.5231256
  72.3622417  56.7549324  69.1339874  72.4002886  58.8339567  68.8342285
  72.1029091  59.3900347  67.9451561  71.2243509  58.9619637  69.8231125
  71.3528872  58.1474590  70.5359602  71.2649775  60.2013063  70.7238865
  70.2963305  60.3730965  71.1932659  72.0373297  60.1306105  71.4897633
  71.3326550  61.0453320  70.0374937  69.8342562  58.7315130  69.1244888
  69.8123550  57.8148031  68.5351896  69.0899849  58.6241484  69.9135590
  69.6289349  59.5017147  68.3810282  73.6282587  59.5810461  69.2670536
  73.9782619  60.6447601  68.7793732  74.4033480  59.0241432  70.1822472
  74.0208673  58.1719112  70.5663204  75.6182861  59.5724010  70.8938456
  75.2381706  60.4949903  71.3325357  76.1490822  58.5778666  71.9118452
  76.0545683  57.5858688  71.4701319  77.2035122  58.8523293  71.9427156
  75.5844927  58.9050531  73.2779551  75.8487129  59.9206972  73.5724926
  74.5097494  59.0558910  73.3793116  76.2852764  57.9808283  74.3991804
  76.2944365  56.9248629  74.1290808  77.2486305  58.4035778  74.6843576
  75.4458904  58.2045317  75.7016230  74.3725348  58.2189274  75.5123949
  75.5319595  57.3671293  76.3940430  75.6877804  59.3860865  76.4982080
  75.4641056  60.2672768  76.0582304  75.0573587  59.3970203  77.2872257
  76.5904856  59.4390774  76.9481182  76.7570972  59.8837471  69.9326372
  77.2579336  61.0553360  69.8830938  76.9617462  58.9623547  68.9797592
  76.6838932  57.9965019  69.0798521  77.7166891  59.2266846  67.7598619
  78.7308645  59.5581436  67.9827642  77.8016996  57.9711819  66.9100666
  78.2970142  57.1375656  67.4079037  76.7828321  57.6644850  66.6735363
  78.5674810  58.1630850  65.5995035  78.1408596  58.9863396  65.0264931
  79.6293783  58.2947159  65.8072186  78.5749340  56.9218302  64.7010040
  77.7803278  56.0092068  64.9296331  79.3346167  56.8368959  63.7519312
  77.2319317  60.4551077  66.9122839  77.9075003  61.4759350  66.6917753
  75.9207487  60.5406809  66.7002058  75.3057766  59.8630095  67.1275997
  75.3845072  61.6311693  65.8932877  76.0625219  61.7276669  65.0452948
  73.8991070  61.4281130  65.3697062  73.1735563  61.6173601  66.1608219
  73.5052299  62.3994303  64.2474937  73.2149982  63.3547735  64.6847391
  74.3932486  62.4935913  63.6224604  72.6190376  62.0306540  63.7309980
  73.8957453  60.1273870  64.7527504  73.9240646  59.4849205  65.4655170
  75.4385900  62.9591131  66.6093016  75.6234884  64.0069675  65.9830189
  75.3064585  62.9896021  67.9460287  75.2321339  62.1069193  68.4312534
  75.5695343  64.1588974  68.7898588  74.7833252  64.8863935  68.5880518
  75.3704548  63.8138437  70.2799797  76.2259912  63.3649111  70.7845831
  74.9331951  65.0704718  71.0146046  74.6801424  64.8683405  72.0553780
  75.7000351  65.8451033  71.0136795  74.0592098  65.4900694  70.5164242
  74.3064833  62.9338646  70.4525709  74.2554379  62.5602818  69.5697212
  76.8877649  64.8830175  68.6529541  76.8611336  66.0786247  68.7942123
  77.9784584  64.2232609  68.5062075  77.7707577  63.2349300  68.5190821
  79.4066238  64.6202993  68.5568333  79.5730400  65.3894186  67.8026056
  79.7384977  65.2130938  69.9638462  79.0141249  65.9309435  70.3486538
  79.6622801  64.4271517  70.7152367  81.1277199  65.8710909  70.0461197
  81.5197086  66.0624838  71.0450220  81.8597603  65.2259254  69.5603418
  81.1142731  67.2166491  69.3171024  82.1223927  67.5695276  69.0996885
  80.6654549  67.1036434  68.3302450  80.3040791  68.3368015  69.9768305
  79.7842169  68.0782557  70.8032656  79.8297834  69.4054985  69.3380642
  80.1300430  69.9021626  68.1749153  80.7723713  69.4540453  67.5371885
  79.5539236  70.6671715  67.8540421  79.0703583  70.1112366  70.0967121
  78.8980675  69.7230959  71.0131025  78.7216759  71.0170698  69.8174620
  80.3692818  63.4465647  68.1638670  80.8326626  63.4498787  67.0118141
  80.7888508  62.5290489  69.0954351  80.4626083  62.7540493  70.0244379
  81.6330528  61.3214350  68.8598490  81.9777870  61.1564398  67.8390455
  82.9439545  61.2855816  69.6810055  83.2811832  60.2893162  69.3949366
  83.8754559  62.3052597  69.1373348  83.5360241  63.2507277  69.5603943
  84.9044228  62.1191168  69.4450378  83.8880444  62.3361063  68.0478430
  82.7424717  61.3762474  71.0602999  83.0625916  60.5672979  71.4661598
  80.9948921  59.9958563  69.2316866  80.1517582  59.8898697  70.1427603
  81.2797642  58.8606262  68.5503817  81.9973278  58.9128017  67.8415203
  80.8484650  57.4727726  68.8433981  79.7588491  57.4452734  68.8336992
  81.3053513  56.4083242  67.7857351  81.1667442  56.7761850  66.7690897
  82.3734283  56.2247896  67.9025126  80.5655384  55.0812721  67.9085064
  80.8768845  54.5933676  68.8321495  79.5053577  55.3339767  67.9246950
  80.8545017  54.0900183  66.6979361  81.9448757  54.2513275  66.1160660
  80.0058460  53.2337046  66.4049292  81.3121796  57.0217419  70.2071142
  82.4943829  57.0621300  70.4449654  80.4290485  56.5567875  71.1323595
  79.0409136  56.3924599  71.0306168  78.7283850  55.8606005  70.1319790
  78.4996843  57.3385811  71.0361767  78.5464573  55.6546450  72.2559500
  78.5856247  54.5720196  72.1355677  77.5462866  55.8944178  72.6168680
  79.6128607  55.9418297  73.2975960  79.7856665  55.1517248  74.0283298
  79.3515873  56.8879747  73.7715626  80.8697987  56.0755920  72.4100065
  81.5611744  56.7090750  72.9656982  81.6584206  54.7373438  72.3454380
  81.3282490  53.8419294  71.5842962  82.7562428  54.6549559  73.1318474
  82.6940250  55.3236771  73.8861895  83.3738899  53.3552933  73.5483217
  83.6958027  53.0412531  72.5554180  84.5486355  53.5379362  74.5009804
  84.2324066  54.1142416  75.3704453  85.2109528  52.3077393  75.0926685
  84.6036434  51.8145418  75.8516359  85.3674030  51.6228676  74.2592525
  86.1273289  52.5681782  75.6223297  85.5922985  54.4251823  73.7554121
  86.2624836  53.8925982  73.0806541  85.1957226  55.1780081  73.0741739
  86.5661240  55.1442623  74.6867561  86.0460949  55.6721735  75.4861259
  87.0974445  54.4320011  75.3180170  87.3092651  55.7233906  74.1386318
  82.2844791  52.3832417  74.1176510  81.2907124  52.7719784  74.7017956
  82.5614071  51.0885143  74.1083717  83.3043957  50.8472443  73.4681654
  81.6693497  49.9533939  74.5862103  80.8100128  49.8483658  73.9239359
  82.5450230  48.6483145  74.5514870  82.9571056  48.5909081  73.5440159
  83.3879471  48.6728621  75.2421141  81.6566467  47.4784422  74.9412584
  81.6524124  46.9592237  76.0430288  80.9101486  46.9669533  73.9949608
  80.2868938  46.1883926  74.1546535  80.9937477  47.3632860  73.0697393
  81.1614609  50.2110052  75.9817314  81.8922520  50.5236292  76.9313669
  79.7781992  50.2592230  76.1078072  79.2543173  50.1955748  75.2466440
  79.0855694  50.7632065  77.3436260  79.7047901  50.3136921  78.1199026
  79.1076565  52.2835636  77.3190832  78.8953209  52.4845600  76.2690258
  78.0519485  52.9068565  78.2612276  78.1188250  53.9944649  78.2341480
  77.0771980  52.5540161  77.9243851  78.2425356  52.5797939  79.2833805
  80.2615738  52.8134823  77.7518463  80.9817886  52.4742270  77.2153807
  77.6607466  50.1970482  77.5045204  76.9451571  50.0240135  76.5339613
  77.3321676  49.7936249  78.7388468  77.8518343  50.0218582  79.5742798
  75.9933710  49.3072414  79.1655827  75.6816387  48.5280371  78.4700489
  76.1458445  48.6190176  80.5729580  77.0052195  49.1010475  81.0390282
  74.8875809  48.6089468  81.4239120  74.7435951  49.5516825  81.9517517
  74.0383768  48.3040953  80.8123302  75.0647926  47.8624058  82.1981049
  76.5585995  47.2718000  80.3591824  77.1125937  47.2996426  79.5756531
  75.0303459  50.5105305  79.0967607  75.2759314  51.5437841  79.7431564
  73.9328957  50.4176474  78.3386230  73.8841581  49.5639944  77.8010321
  72.9466152  51.4750338  78.2294655  73.1301498  52.1369553  79.0757942
  73.0051327  52.1045017  76.7890263  72.7918386  51.2654161  76.1267996
  72.1118975  52.7281904  76.7538404  74.1760015  52.8267241  76.4159966
  74.4721413  54.0166616  77.1002150  73.9207125  54.2494869  77.9991722
  75.6241465  54.8038101  76.7326546  75.8933401  55.5949259  77.4168110
  76.4687920  54.3435478  75.6952715  77.5042391  55.1012421  75.3414440
  78.1331921  55.2579069  76.0495901  76.2335014  53.0758762  75.0176525
  76.9700336  52.7415228  74.3020201  75.0388765  52.4450159  75.3250885
  74.8832464  51.5163374  74.7961903  71.6051197  50.8058596  78.3701420
  71.5211201  49.6235943  78.7163687  70.5385971  51.6126633  78.4071922
  70.7397461  52.6017237  78.3698225  69.2356348  51.2726736  79.0111923
  68.8162518  50.4918623  78.3767271  69.3163443  50.8633280  80.5568409
  68.4541607  50.2185917  80.7273197  70.1226616  50.1707172  80.7981777
  69.2926168  51.9003344  81.4974213  70.0914049  52.4227762  81.3945103
  68.2524633  52.4725199  78.8427401  68.7727833  53.5795450  78.6616230
  66.9221401  52.3313093  78.9552784  66.5493250  51.4196634  79.1789007
  66.0732031  53.4310532  78.5926723  66.3250351  53.6815119  77.5621605
  64.5894146  53.0689192  78.7508249  64.3700790  52.1394539  78.2253885
  64.3807268  52.9106522  79.8088932  63.6969614  54.2346811  78.3015871
  63.3952999  54.3385935  76.9391680  63.7980413  53.7300396  76.1430120
  62.4772787  55.2677774  76.4932108  62.1503305  55.4008818  75.4725266
  61.9235182  56.1147165  77.4641466  61.1773968  57.1162939  76.9969082
  60.7695103  56.8973398  76.1559057  62.2697878  56.0767460  78.7770033
  61.9846678  56.8703079  79.4518137  63.1261206  55.1312351  79.2165136
  63.5999680  55.1235580  80.1869869  66.3409328  54.7817278  79.3459082
  66.2010622  55.8800316  78.7763786  66.6969490  54.7820377  80.6325436
  66.8507528  53.8893747  81.0793018  66.9316769  56.0162973  81.3917828
  66.2416553  56.7917919  81.0592365  66.8176174  55.8106422  82.8980255
  67.0944548  56.7746019  83.3249378  65.3424740  55.4499626  83.3591175
  65.3146839  55.3668404  84.4455910  64.6544552  56.1991644  82.9674149
  65.0591278  54.4675207  82.9814529  67.7013874  54.8868084  83.5008526
  67.2926664  54.0186167  83.5290527  68.2753754  56.5503407  81.0270500
  68.5141611  57.7059603  81.3288212  69.1185856  55.7776833  80.3056717
  68.9599943  54.7905064  80.1627254  70.3008938  56.3862705  79.6557856
  70.7103920  57.2025633  80.2508259  71.4428997  55.3391933  79.6199369
  71.0802841  54.6114731  78.8939714  72.3496294  55.7961655  79.2235470
  71.7234278  54.7368765  80.9856319  71.5366268  53.4885120  81.1004353
  71.9940662  55.5580091  81.9273281  69.9640083  57.0081186  78.2689953
  70.3525734  58.0499554  77.9058647  69.2477369  56.2395096  77.4621058
  68.9305782  55.3654623  77.8565168  68.7980318  56.5319633  76.0587120
  69.7391081  56.7000341  75.5350399  68.0628443  55.2900362  75.5224323
  68.7311840  54.4306993  75.5768585  67.2407627  55.0426054  76.1940432
  67.3577833  55.3612328  74.1717243  67.7960157  56.2747669  73.2239866
  68.6946106  56.8108845  73.4913921  67.1262169  56.3356256  71.9708252
  67.3578119  57.1796179  71.3380146  66.0987568  55.3977108  71.6386986
  65.5534220  55.4449129  70.7076836  65.7010365  54.4445848  72.6219511
  64.8843575  53.7748528  72.3963547  66.3950825  54.3580627  73.8335466
  66.1613274  53.5851240  74.5507097  67.9510450  57.7688837  76.0365200
  68.2370090  58.7534046  75.2872372  66.8542671  57.9151630  76.8164444
  66.5581036  57.1323872  77.3818207  66.1633730  59.1090584  76.9855547
  65.6686211  59.2419910  76.0234499  65.0561523  58.9744616  78.0033302
  64.3642807  58.1848335  77.7102423  65.4342461  58.7151003  78.9922047
  64.1467667  60.2512217  78.2041025  64.1572905  60.8443689  77.2896767
  63.1301832  59.8895502  78.3585262  64.4833660  61.1555052  79.3575430
  65.5282927  61.0719156  80.0063229  63.5977650  62.0923424  79.6344709
  63.8712597  62.7292871  80.3690529  62.7028036  62.2144461  79.1825533
  66.9670677  60.4045439  77.2110081  66.6540337  61.4234447  76.6051579
  67.9720259  60.3178167  78.1414032  67.9973507  59.4588470  78.6720896
  68.8499451  61.4513588  78.4076023  68.2544518  62.3177624  78.6954117
  69.7275352  61.0065174  79.6324301  69.0229082  60.9044075  80.4577637
  70.1516867  60.0065851  79.5411444  70.8485174  61.9739199  80.0324631
  71.3576365  61.5667200  80.9060097  71.6712093  61.9001961  79.3212318
  70.4781866  63.4299135  80.2697849  70.0429583  63.8388586  79.3579531
  69.8574972  63.4833860  81.1642075  71.6854239  64.2729282  80.6064510
  72.0765257  64.0022898  81.5872097  72.5439072  64.1698170  79.9427605
  71.3040638  65.6984949  80.5515289  70.9356308  65.9578085  79.6475887
  70.5030203  65.8616590  81.1446667  72.0372248  66.3359165  80.8277035
  69.6736002  61.8627644  77.2387218  69.7274685  63.0419397  76.8968248
  70.2552795  60.8749819  76.5082693  70.2192688  59.9529266  76.9188929
  71.0212851  61.0387993  75.2992916  71.8715143  61.6447210  75.6124449
  71.6900826  59.7309303  74.8344564  72.5033331  59.9221706  74.1343498
  72.0436144  59.1468048  75.6841135  71.0138559  59.0626764  74.3013000
  70.1608467  61.6448879  74.2042017  70.6633759  62.4532986  73.4318924
  68.8424444  61.3616133  74.1260290  68.4839058  60.5875921  74.6668053
  67.8934240  61.8842411  73.0797291  68.3221006  61.8364000  72.0787048
  66.6313982  60.9883547  73.0063486  66.1267090  60.9423971  73.9713812
  65.5663919  61.4951420  72.0451212  65.1406050  62.4504852  72.3519182
  65.9944630  61.5103531  71.0428095  64.7605801  60.7715845  71.9216728
  67.0006990  59.6281195  72.4552202  67.6740885  59.0190601  73.0582905
  66.0842371  59.1294622  72.1397161  67.5513077  59.6926498  71.5167284
  67.5805998  63.3012152  73.3641338  67.3847246  64.1171837  72.3955059
  67.6534176  63.7247133  74.6137810  67.9313564  63.0139160  75.2753115
  67.3911190  65.1476908  74.8759556  66.5948248  65.4766226  74.2082596
  66.9818163  65.2306938  76.3209105  67.6004934  64.5849562  76.9440937
  67.0105314  66.2563992  76.6886139  65.4863501  64.9756527  76.5971184
  64.6725941  65.8459139  76.2465286  65.0675011  63.8526344  77.1558905
  64.0738297  63.7683773  77.3159933  65.7333851  63.1034803  77.2802258
  68.5652781  66.0323572  74.5837641  68.3558035  67.1542120  74.1877890
  69.7283936  65.3983974  74.7189140  69.6887302  64.5458317  75.2589655
  70.9794521  66.0037470  74.3000555  71.0400200  67.0217323  74.6849346
  72.1276999  65.1867104  74.9776697  71.9229603  64.1321468  74.7930765
  73.0838060  65.5257988  74.5789576  72.1430540  65.3905201  76.5357876
  72.2328997  66.4564991  76.7448759  71.1964226  65.0350237  76.9427443
  73.2550955  64.6449089  77.2660494  73.2856941  64.9404287  78.3147764
  73.1835985  63.5691357  77.1057606  74.5756006  64.9783897  76.7467308
  74.6447945  64.8799706  75.6633902  74.7832632  66.0411167  76.8715572
  75.6528091  64.3183708  77.4471045  75.6966972  63.3164930  77.3270273
  76.5776300  64.6399355  77.1992970  75.5899906  64.4602060  78.4451199
  71.1812687  66.1104631  72.8077126  72.0522642  66.8501520  72.4334860
  70.4545546  65.3214073  71.9753695  69.9149704  64.5825577  72.4032211
  70.3315783  65.3240347  70.5191278  71.2875843  65.6340742  70.0972033
  70.1125479  63.8770008  70.0114870  70.9994030  63.2782602  70.2190876
  69.3028688  63.4168863  70.5778885  69.7548628  63.7943411  68.5160112
  69.2342091  64.6812820  68.1549644  71.0242701  63.6460400  67.7028847
  70.7970190  63.6048603  66.6376305  71.5600443  64.5794678  67.8754330
  71.6331148  62.7781057  67.9560661  68.7404108  62.6034880  68.2908106
  68.8849449  62.3835325  67.2330618  69.1136599  61.7587233  68.8697481
  67.7111149  62.9217672  68.4561872  69.3557501  66.3807344  69.9557161
  69.7663689  67.1842384  69.1011763  68.1344748  66.3426495  70.4377222
  68.0146217  65.7507896  71.2473154  67.0613813  67.3063993  70.0878811
  66.8675900  67.1423101  69.0278721  65.7996321  67.0008802  70.8923197
  65.9925747  66.9741821  71.9647789  65.1540661  67.8707552  70.7712173
  65.0441122  65.7169294  70.3881407  65.7354307  64.8904753  70.2233553
  64.0325737  65.3286266  71.4840794  63.5911179  66.2013531  71.9652891
  63.1864834  64.7457552  71.1200857  64.5254707  64.6368361  72.1671486
  64.2677927  66.0378408  69.1269684  64.9553394  66.0862446  68.2825470
  63.5871315  65.2118874  68.9205694  63.6519051  66.9349670  69.1898632
  67.6070499  68.7638569  70.2338743  67.5131273  69.6227789  69.3391562
  68.1119537  69.1296101  71.3784552  67.8899002  68.5512543  72.1761370
  68.8809872  70.3975487  71.6335201  68.1872654  71.1803246  71.3267469
  69.1304302  70.4796648  73.1094646  70.1066446  70.0325298  73.2970047
  69.1627359  72.0400047  73.4776163  69.6348143  72.1412134  74.4548607
  69.8121023  72.5425863  72.7607870  68.1937790  72.5323915  73.5599279
  68.1124687  69.8639679  73.9294720  68.3740711  68.9409542  73.8946056
  70.1394844  70.6783676  70.8015108  70.3710556  71.8627834  70.6065607
  70.9290838  69.5970774  70.5471182  70.7361317  68.6393833  70.8034325
  72.1025229  69.6755266  69.6418810  72.8146315  70.4266787  69.9836016
  72.9570293  68.4595728  69.8346853  73.8856363  68.4641600  69.2639208
  73.2499027  68.3057404  70.8732700  72.2694397  67.6421499  69.6175528
  71.8597555  70.0313234  68.1670761  72.7599859  70.5312824  67.4551821
  70.6533289  69.7640896  67.6936769  69.9393415  69.3350887  68.2648849
  70.2733755  70.2889442  66.3703632  71.1445618  70.1998425  65.7213688
  69.0662575  69.5072174  65.7460499  69.3856955  68.4849691  65.5433941
  68.1745386  69.5874214  66.3677454  68.7870169  69.9294853  64.3980551
  69.6174192  69.9092913  63.9167833  69.8226881  71.7531586  66.5953922
  68.6718035  72.0385361  66.9795370  70.7080364  72.7085781  66.3517761
  71.6000175  72.4711275  65.9417820  70.7045078  74.0973425  66.7201614
  69.7016478  74.3780231  67.0420361  71.6226339  74.2680025  68.0111837
  71.2339592  73.6353540  68.8091707  72.6050997  73.9228821  67.6890755
  71.7868233  75.7066774  68.6467695  72.2017622  75.5847454  69.6473026
  72.7642345  76.6950369  68.0174446  72.3334837  76.9774437  67.0568180
  72.9170942  77.5112152  68.7235403  73.7634659  76.2691736  67.9264212
  70.3806591  76.4164257  68.6227655  70.4208374  77.3374033  69.2043877
  70.1279497  76.5460825  67.5704241  69.6448660  75.7332325  69.0469790
  71.0433722  74.8431444  65.4782867  70.2068615  75.5147886  64.8000336
  72.2274923  74.6512270  65.0574160  65.6326199  48.7306166  77.2451544
  54.9049520  73.8258076  27.4837494  54.4359779  73.1447268  26.9038391
  54.5505190  74.7310400  27.2098351  54.4915819  73.6848688  28.3944416
  56.3986254  73.8345909  27.5120854  56.7318583  73.9065123  26.4767671
  56.9257069  75.1177549  28.0371428  56.7594862  75.1562119  29.1137099
  58.4354782  75.1474810  27.7719593  58.5647440  75.0936937  26.6909909
  58.7869453  76.0858536  28.2009435  58.9298344  74.2550468  28.1557202
  56.2728548  76.1851549  27.3938155  56.0613775  76.8567657  28.0463576
  57.0860529  72.6394224  28.2189322  57.4825573  72.7304888  29.3762207
  57.3586702  71.5734577  27.4357986  56.8579006  71.4180088  26.5725684
  58.1719255  70.3675461  27.8497148  58.0052805  69.6419144  27.0536065
  59.6652937  70.6979609  27.8940105  59.8835754  71.2430811  28.8123226
  60.1857185  69.7471380  28.0089235  60.2829790  71.3892031  26.6799521
  59.7296810  71.6073847  25.6372046  61.5591574  71.7622805  26.8249393
  62.1175289  72.0466089  26.0328007  61.9836998  71.5335417  27.7123737
  57.6149225  69.7126055  29.1558075  58.3458710  69.2108774  30.0225377
  56.2419033  69.6228409  29.1955566  55.7451630  69.9569273  28.3820868
  55.4449415  68.9308786  30.2651715  55.4635525  69.5986986  31.1264372
  53.9540577  68.8341808  29.9238443  53.7899876  68.1194878  29.1173720
  53.5105944  68.2364750  30.7202053  53.0423260  70.0220251  29.6539950
  52.0105124  69.6838093  29.7492886  53.0934954  70.8320951  30.3815055
  53.1991482  70.6578302  28.2856011  54.2738581  70.9206057  27.8268099
  52.1993589  70.8167028  27.4377823  52.4568892  71.0675240  26.4939260
  51.2530613  70.8680248  27.7870512  56.0339546  67.5485897  30.5962610
  56.2467337  67.1296215  31.7424321  56.3190222  66.7901134  29.5070672
  56.0467815  67.1273708  28.5947943  56.8359995  65.4257202  29.6395063
  56.2785673  64.9693203  30.4574752  56.6755819  64.6339846  28.3324695
  57.1279001  65.2904320  27.5891113  57.1303892  63.6465311  28.2537103
  55.2132940  64.4674301  27.7548337  54.6716309  65.4127455  27.7878070
  55.2431488  64.0458012  26.2644124  55.7900429  64.8755550  25.8166242
  55.7556629  63.0875349  26.1798501  54.2252493  63.9271593  25.8930588
  54.5192337  63.5418606  28.6905384  55.2564096  62.8987026  29.1711831
  54.1199064  64.2500782  29.4165373  53.7143230  63.0383778  28.1550694
  58.3196211  65.2974319  30.0706840  58.6634874  64.3164778  30.7842350
  59.0813494  66.3504362  29.8026133  58.6973190  67.1478796  29.3160892
  60.4467821  66.4734745  30.3823209  60.9339619  65.5116129  30.2223873
  61.2718916  67.4325037  29.4711447  60.8143330  68.4167242  29.5713782
  62.2950363  67.5036430  29.8402166  61.2132168  66.9606876  27.9720783
  61.2295723  65.8914948  27.7607656  60.2979898  67.4280691  27.6087356
  62.2990704  67.6059294  27.0848465  63.1937790  68.3509445  27.4463463
  62.1890211  67.3270655  25.8186889  62.8795671  67.7015924  25.1838827
  61.5024328  66.6387367  25.5450082  60.4281425  66.7898560  31.9170904
  61.1623573  66.1926079  32.7194476  59.5895052  67.7187347  32.2354603
  59.3961620  68.3672762  31.4857149  59.3926001  68.1324005  33.6408806
  60.3310871  68.4393454  34.1025376  58.3522034  69.2851591  33.7047958
  58.7559843  70.0829220  33.0813932  57.3724413  69.0111399  33.3135319
  58.1680870  70.0029898  35.1048994  59.2226076  70.8258629  35.6012273
  60.1156521  70.9407234  35.0048327  59.1462994  71.2921667  36.9677114
  59.8862696  71.8997097  37.4674535  58.0308723  70.9029913  37.6707077
  58.0658913  71.0655499  38.9725065  58.7868071  71.6399097  39.2408276
  56.9527149  70.1706171  37.0807195  56.1642170  69.8297119  37.7352810
  57.0652866  69.6311855  35.8229280  56.3446188  68.9062166  35.4744220
  58.9732742  66.8546200  34.4944739  59.6233511  66.6466475  35.5054283
  58.1017542  66.0996580  34.0114093  57.7166653  66.3921165  33.1246853
  57.6676464  64.8390198  34.6489024  57.3783588  65.0457716  35.6792760
  56.4440107  64.3011284  33.9220452  56.7241907  64.2879915  32.8687525
  56.3214350  63.2368612  34.1230774  55.0794601  65.0151968  34.1878223
  55.1337910  66.0895920  34.0122557  53.9093399  64.2937517  33.4557152
  54.0012646  63.2254601  33.6516833  52.9144001  64.6278286  33.7499857
  54.1055679  64.4633102  32.3970151  54.7879410  64.7728682  35.6766105
  54.8480749  63.7287235  35.9836030  55.4257059  65.4239416  36.2744927
  53.7985182  65.1687956  35.9054804  58.7765121  63.8194132  34.7716689
  58.9835644  63.4794331  35.9468675  59.6345425  63.4716415  33.7740088
  59.2045498  63.6224651  32.8726459  60.7108831  62.4993277  33.9571023
  60.2958870  61.6454935  34.4926929  61.2516308  61.9638395  32.5416541
  60.4952955  61.7484522  31.7868924  61.8660688  62.7805758  32.1628237
  62.2707796  60.8744097  32.6891422  63.1819487  61.1976719  33.1925082
  61.8488312  59.6643734  33.5088325  61.4665270  59.9802828  34.4794726
  61.0750246  58.9890718  33.1437445  62.7633715  59.1238117  33.7527895
  62.5834465  60.4091072  31.3021469  62.8875542  61.2336779  30.6573892
  63.4664822  59.7710180  31.3366866  61.7715836  59.8234892  30.8708358
  61.8449020  63.1462908  34.7695208  62.2158337  62.6086617  35.7934642
  62.3562002  64.3298721  34.3350792  61.8278790  64.8299885  33.6344671
  63.6037159  64.9707174  34.8896384  64.3226480  64.1605616  35.0116420
  64.0800619  65.9341383  33.7982893  63.3412361  66.7337990  33.7455320
  65.0941563  66.2414789  34.0537405  64.2944384  65.3181362  32.3928571
  64.7336245  64.3241072  32.4772787  63.3159685  65.0771809  31.9773650
  65.0326633  66.2236977  31.4289808  64.3331194  67.0389318  31.2442303
  65.9794474  66.5179920  31.8818593  65.2579784  65.5953646  30.1077294
  65.4221439  64.6094990  29.9620533  65.3816795  66.3149834  28.9794493
  65.5500031  67.5993633  28.9999366  65.5516386  68.1302977  29.8591256
  65.5257940  68.1080818  28.1277490  65.4284525  65.7368898  27.7876568
  65.4298735  64.7281456  27.7372575  65.6394482  66.2499189  26.9436288
  63.4800196  65.7881117  36.2148213  64.4474554  66.0927773  36.8626523
  62.2726583  66.1447001  36.5850329  61.5150833  65.8296299  35.9960461
  62.0424891  66.8660688  37.8635168  62.9536724  66.9853783  38.4496999
  61.5954733  68.3297300  37.5877929  60.6396103  68.4121895  37.0704675
  61.5674496  69.1052294  38.9319634  62.3148584  68.6378765  39.5731044
  61.7886925  70.1723051  38.9094615  60.6330061  69.0469980  39.4901061
  62.5366497  69.1036654  36.6424131  63.5336304  69.2597103  37.0544529
  62.7778530  68.5404205  35.7409239  62.0297861  70.0208378  36.3424468
  60.9747839  66.1669302  38.7919855  61.2427044  66.0104036  39.9333763
  59.7174120  65.9223318  38.3594036  59.5203066  66.1691904  37.4000740
  58.5916567  65.4342651  39.2430043  58.6381578  65.9576893  40.1979733
  57.1941376  65.4474115  38.6157036  56.9972467  64.7214031  37.8268766
  56.0987759  64.9778557  39.5829296  56.3625908  65.2678967  40.5999756
  55.0846195  65.3183174  39.3739367  56.0825825  63.8879776  39.5809412
  56.8714094  66.8495369  38.1366515  55.8061647  66.8679810  37.9063869
  57.1444082  67.5172091  38.9538312  57.4860191  67.0505142  37.2591758
  58.9090490  63.9908934  39.6458340  59.0587759  63.6784601  40.8453512
  59.2277956  63.1588221  38.6582088  59.1513300  63.4111834  37.6832366
  59.6372747  61.7749119  38.9915824  58.8596678  61.4665556  39.6904063
  59.6853161  60.9318304  37.7167678  58.9238024  61.2377644  36.9994116
  60.5833483  60.9855080  37.1013331  59.3178558  59.4816637  37.9823351
  58.6780310  59.2987156  38.8456178  58.8659000  58.6825800  36.6910148
  59.5598745  58.8097763  35.8601570  58.8609600  57.6220179  36.9425869
  57.8598309  58.9663982  36.3821888  60.6430101  58.8776064  38.4840274
  60.5085135  57.8107309  38.6623144  61.4430189  59.0320349  37.7599812
  60.8718348  59.2521381  39.4817591  60.9880543  61.7875195  39.7421026
  61.1207199  61.1241245  40.7394934  61.9665051  62.6868725  39.4347119
  61.8333483  63.2130718  38.5829568  63.2393312  62.7119970  40.1505756
  63.7613201  61.7552376  40.1663733  64.2667770  63.6181545  39.4735551
  63.7224722  64.5043421  39.1472101  65.0458813  63.8243151  40.2074432
  64.9873114  62.9668236  38.2021523  65.0890493  61.8841648  38.2770014
  64.3447685  63.0871153  37.3299336  66.3405561  63.6085463  37.9070425
  66.1691427  64.6824026  37.8325391  67.0341301  63.4366751  38.7301636
  67.0161104  63.1573296  36.6249919  67.5381184  62.2209501  36.8219686
  66.1870384  62.9057217  35.9636021  67.9342270  64.1184378  36.0120535
  67.6025009  65.0530958  35.8210731  68.7426567  64.1575480  36.6162133
  68.2425165  63.7594366  35.1197672  63.0625820  63.0226469  41.6357899
  63.6251402  62.3623943  42.5354290  62.2296667  64.0298271  42.0032024
  61.9014692  64.6486378  41.2755585  61.7764664  64.4840193  43.3115101
  62.6379013  64.9291468  43.8093948  60.6436968  65.4917240  43.2179785
  59.8804522  64.9706411  42.6400280  60.1499271  65.7816982  44.6336651
  59.3112421  66.4322853  44.3857813  59.8142338  64.9003792  45.1801872
  60.9257889  66.3145018  45.1834488  61.0435438  66.7297792  42.5886154
  61.2959337  66.6681480  41.6644382  61.3569260  63.2792616  44.1259956
  61.9009209  62.9255676  45.2455521  60.3703880  62.5873852  43.5789442
  60.0294590  62.9218674  42.6890087  59.8380041  61.3007402  44.1024446
  59.4443941  61.4575386  45.1067305  58.6306953  60.9295321  43.2782841
  58.9913511  60.8784103  42.2509480  58.3648014  59.9509478  43.6780071
  57.4517584  61.9051123  43.3662081  57.6415730  62.8264332  42.8155375
  56.2328720  61.2186861  42.7108049  55.3871250  61.8972301  42.5994825
  56.5958452  60.8101702  41.7676878  55.8938169  60.3566408  43.2852745
  56.9620132  62.3171234  44.7833395  55.9863758  62.7933550  44.6862078
  56.7330980  61.4723921  45.4330492  57.5874043  63.0223370  45.3307533
  60.8564091  60.2102089  44.2462635  60.8641958  59.6228838  45.2867556
  61.8029356  60.1044178  43.2308912  61.7850876  60.7557106  42.4591398
  62.7141953  58.9750719  43.1771088  62.1863174  58.0273199  43.2829809
  63.4973669  59.0309048  41.8687105  62.7452707  59.1198444  41.0847807
  64.0320253  59.9801207  41.8336248  64.3364382  57.8503370  41.4960527
  65.6392384  57.7016735  41.7684603  66.2928295  58.3871889  42.2873926
  66.1201811  56.5523481  41.2364054  67.1087551  56.3457870  41.2238550
  65.1693726  55.8188868  40.6000662  65.1844692  54.5765114  39.9501467
  66.1164284  54.0469217  39.8182535  63.9896631  54.0271807  39.4801998
  63.8552666  53.0706644  38.9970684  62.8175592  54.8297882  39.6262455
  61.8423891  54.5007038  39.2989206  62.8782940  56.1086226  40.1656723
  61.9158840  56.5934658  40.2370358  63.9904022  56.6043043  40.7800245
  63.6769295  58.9216948  44.3975210  64.0287018  57.8526735  44.8871422
  64.1966486  60.1183605  44.8528910  63.8386679  60.9795666  44.4652271
  65.2082014  60.3203869  45.9124613  65.7131720  59.3825912  46.1440611
  66.2622833  61.3500166  45.4710531  65.7227278  62.2316122  45.1249695
  66.8918705  61.6558409  46.3066339  67.1552229  60.6900597  44.4212675
  67.6956701  59.9490261  45.0102472  66.6250753  60.2184963  43.5938215
  68.2261801  61.7326069  43.9109707  67.7063274  62.4929810  43.3281374
  68.4211874  62.1177864  44.9118233  69.4950104  61.1077738  43.3539248
  69.7447157  60.2610922  43.9933634  69.3284416  60.7387972  42.3418903
  70.6099653  62.0953989  43.3018112  70.5555010  62.7304363  42.5183201
  70.6576395  62.7310038  44.0852880  71.4742756  61.5739393  43.2679701
  64.5927191  60.6326962  47.3241806  65.3224707  60.9923220  48.2460594
  63.2461071  60.5658579  47.4447680  62.7223492  60.4603767  46.5876484
  62.6110172  60.4395151  48.7192965  63.1315470  61.2141562  49.2824030
  61.1838007  60.8504152  48.6325693  61.1639929  61.7280436  47.9864454
  60.7066631  59.9231768  48.3152914  60.6164360  61.3023663  49.9142408
  60.6141901  60.6556845  51.1228895  60.2190065  61.5569735  51.9840336
  60.0732946  61.4313698  53.0467653  60.0717402  62.7865601  51.4171743
  59.7246552  63.6269569  51.8569040  60.3057432  62.5997019  50.1247787
  60.5048943  63.4066010  49.4351006  62.8578377  59.0900660  49.4605446
  62.6495934  57.9737616  48.9023972  63.2063293  59.2230225  50.7644033
  63.4894514  60.1464176  51.0598564  63.2216263  58.0713844  51.6971493
  64.1401052  57.4908304  51.6108418  63.2079029  58.6728096  53.1150913
  64.0540648  59.3412828  53.2739925  62.3064852  59.2799854  53.1980324
  63.1035662  57.6603699  54.2836475  63.1364393  58.2086754  55.2251244
  62.2136974  57.0403576  54.1749334  64.3379831  56.7467976  54.2708874
  65.4022121  57.1805477  54.6126747  64.2531681  55.4393673  53.9841986
  65.0620747  54.8547459  53.8293076  63.3748913  54.9440050  54.0420580
  62.0751810  57.0540667  51.4343405  62.2807932  55.8461380  51.1946011
  60.8237410  57.5422382  51.3689613  60.7479382  58.5493517  51.3780308
  59.5716333  56.7457390  51.1874771  59.4982815  55.8246231  51.7656326
  58.4023857  57.6908112  51.5885258  58.6064148  58.5214615  50.9128809
  57.3936129  57.3621273  51.3386393  58.3936548  58.2222748  53.0404806
  59.1993570  57.7437544  54.0956402  59.6554184  56.7650175  54.0737009
  59.3005085  58.4177208  55.3457737  59.9488211  58.0334568  56.1193562
  58.8050842  59.7161531  55.3757763  59.0236235  60.3512144  56.2215567
  57.9816389  60.2635956  54.3854952  57.4471235  61.1927843  54.5170450
  57.7116251  59.4464302  53.2577610  57.0550537  59.8966026  52.5279284
  59.2682123  56.1077213  49.7707176  58.3239651  55.3844786  49.6037292
  60.1605177  56.2989855  48.7708998  61.0455990  56.7116022  49.0287495
  59.9957514  55.7504892  47.4394751  58.9412403  55.6642342  47.1774197
  60.7185078  56.6302919  46.4321518  60.6308317  56.2326241  45.4210711
  60.2660942  57.6200628  46.4935684  61.7753839  56.6454744  46.6983891
  60.6569004  54.3763161  47.3821688  60.7041931  53.7348032  46.2890768
  61.1331940  53.8773298  48.4891748  60.9373426  54.3694305  49.3491650
  61.8674278  52.5948668  48.5003090  62.7782917  52.6961327  47.9102468
  62.3307180  52.3311663  49.9406147  63.1360722  51.6118145  49.7921610
  62.6914310  53.2881165  50.3177404  61.4779186  51.7256403  51.0092831
  60.6965828  52.4003696  51.8517160  60.6080961  53.4764051  51.8248558
  60.2278376  51.4871740  52.8141546  59.6013117  51.7229795  53.5704327
  60.4298925  50.2215099  52.4473095  60.0606775  48.9643860  52.9273081
  59.3813276  48.8563919  53.7599039  60.4676628  47.7975655  52.2107220
  60.2624798  46.8546772  52.6957607  61.2497473  47.9110670  51.0307121
  61.4959145  47.0033550  50.4998016  61.5188026  49.1753101  50.4551935
  62.0814228  49.2252159  49.5346689  61.1695433  50.3015757  51.2211132
  61.1109686  51.4113760  47.8841925  61.7202663  50.6520939  47.1621656
  59.7859669  51.1828041  48.0632925  58.8188362  51.9938421  48.8168144
  58.4586334  52.7133465  48.0815125  59.1763544  52.5299358  49.6959496
  57.7024126  51.1123371  49.2371702  56.7037582  51.4989901  49.0339756
  57.8162909  50.9169626  50.3034544  57.9237270  49.8056126  48.4900141
  57.0872021  49.5079374  47.8577852  58.1667566  48.9892578  49.1701651
  59.0282011  50.0777006  47.4986124  59.6442413  49.1999626  47.6940203
  58.6262703  50.2235174  45.9989309  58.3842993  49.2506504  45.3095913
  58.8543177  51.4756870  45.4421091  59.2040634  52.1976471  46.0557461
  58.2904291  51.8839407  44.1977644  57.6946449  51.0826015  43.7607288
  57.2996664  53.0407095  44.6222687  57.8284740  53.8872004  45.0603485
  56.8661261  53.4986162  43.7331867  56.1141109  52.6004314  45.4896212
  55.8709860  53.1923485  46.7470455  56.5635729  53.9077711  47.1652412
  54.7838688  52.7494621  47.5393534  54.7307920  53.1140375  48.5545778
  53.9738274  51.6320705  47.1690845  53.1965160  51.2513685  47.8150415
  54.2150927  51.0842848  45.8632708  53.5315800  50.3907490  45.3961229
  55.2153635  51.5909100  45.0906134  55.3768158  51.0830784  44.1512299
  59.2188215  52.2577286  43.0547285  58.7575531  52.5389576  41.9365072
  60.5669975  52.2322369  43.2669306  60.7770014  51.7184114  44.1107225
  61.6032457  52.4584484  42.2404814  61.2505007  53.2004738  41.5241957
  62.9089355  52.8992510  42.8865433  63.1552219  52.0976973  43.5829306
  63.4761810  52.9595232  41.9577217  62.9077435  54.2272186  43.6773205
  63.4862041  54.8471451  42.9923534  61.9250870  54.6989059  43.6757660
  63.6051512  54.1522026  44.9831009  63.8976145  53.0813837  45.4877663
  63.9365435  55.1987410  45.7300949  64.3394136  54.8857641  46.6017866
  63.7351799  56.1734390  45.5582952  61.8931770  51.2155962  41.3919210
  62.6767921  51.2631941  40.4239607  61.2385702  50.1003504  41.5935135
  60.6544638  50.0764370  42.4171305  61.3817215  48.8465309  40.8889151
  61.5995646  48.9362764  39.8246837  62.6173210  48.2004499  41.5785074
  63.1056690  47.5502634  40.8526468  63.3809280  48.8821745  41.9530153
  62.3974657  47.3426104  42.8214550  61.8566895  46.4025688  42.7119780
  63.4444666  47.0909929  42.9904985  61.6922569  48.1470299  43.9637375
  62.0572281  49.2900944  44.2937899  60.8875370  47.5366497  44.7844887
  60.4769325  48.1497002  45.4741812  60.5055761  46.6346598  44.5382643
  60.0616264  48.0704355  41.1352444  59.1912889  48.5177517  41.9007874
  59.9088764  46.8795156  40.5025196  60.8700371  46.2068462  39.6139526
  61.6698456  45.8268595  40.2495718  61.2833691  46.8605947  38.8459158
  60.1330090  45.0207281  38.9647079  60.7960749  44.1589499  38.8886237
  59.7127295  45.4093409  38.0371046  59.0468645  44.7486210  39.9962473
  59.4438696  44.0153313  40.6982231  58.1666088  44.3010044  39.5348501
  58.7322807  46.0736704  40.7515812  57.9361200  46.5811586  40.2068853
  58.2895184  45.7842731  42.2392130  59.1336203  45.6174850  43.0766582
  56.9822359  45.6478024  42.3876905  56.5536928  45.6511354  41.4731216
  56.3046026  45.4910660  43.6380529  57.0737076  45.7388020  44.3696260
  55.1312637  46.4014006  43.7877798  54.4975281  46.0110855  44.5841074
  55.5589104  47.7615452  44.2729664  54.8174191  48.5474205  44.1291428
  55.7427025  47.7348614  45.3470278  56.4711142  48.0791807  43.7679052
  54.2570734  46.3540792  42.5971651  53.5259819  47.1466970  42.7564049
  54.7077608  46.6758013  41.6582966  53.6976242  45.4210424  42.5296545
  55.9446764  44.0150356  43.8956022  54.8179865  43.5947943  43.8393927
  56.9942522  43.2123852  44.0714359  57.9123545  43.6282444  44.0062141
  56.9212246  41.7946863  43.9193106  56.3936520  41.6274595  42.9802656
  58.3607435  41.3382912  43.7093973  58.8547373  41.8443441  42.8799534
  58.9639759  41.5457964  44.5932245  58.2198668  39.7581601  43.5066938
  57.9197741  39.3613553  42.3535156  58.4545040  38.9900422  44.4537401
  56.2210941  41.0963964  45.1865101  56.5550518  41.3132238  46.3267088
  55.2685022  40.2614784  44.8304844  55.1569319  40.0363493  43.8522387
  54.4517612  39.5043397  45.8230734  54.0578222  40.3242779  46.4235878
  53.4012890  38.7093496  45.0698233  52.6776695  39.4150901  44.6618986
  53.8554811  38.1061316  44.2837334  52.9411077  38.0373406  45.7942104
  55.2617311  38.6783266  46.7976761  54.9281073  38.5198426  47.9760361
  56.4195442  38.1282449  46.4288330  56.6747952  38.1367707  45.4516554
  57.3559570  37.4608946  47.3479271  56.6979837  37.0643163  48.1211615
  58.1253719  36.3461924  46.6148853  58.6424065  36.7613578  45.7497740
  59.0532732  35.7781243  47.6779175  59.5209408  34.9273300  47.1823978
  59.7797346  36.5262222  47.9952717  58.5072422  35.3601885  48.5236597
  57.1685791  35.2081442  46.2351942  56.3659096  34.9787378  46.9360352
  56.7489433  35.5398679  45.2854729  57.6820660  34.2522454  46.1317396
  58.1269598  38.5419083  48.0452204  58.0615950  38.6219788  49.2762136
  58.9976358  39.2460704  47.3879147  58.9922810  38.9825320  46.4129210
  60.0906229  40.0870943  47.8975677  60.7684517  39.4224930  48.4332514
  60.9968901  40.6398773  46.7136669  60.4728270  41.3917685  46.1236572
  61.7231321  41.3127184  47.1696901  61.6813087  39.6145678  45.8228636
  62.3510504  39.0134978  46.4378929  60.9039354  38.9422750  45.4598045
  62.4384689  40.2999830  44.6650648  61.6971827  40.7965660  44.0389633
  63.1002045  41.0617781  45.0772238  63.1504822  39.3367124  43.7205505
  63.9432287  38.8412547  44.2810678  62.4048853  38.6240554  43.3679819
  63.7352943  39.9736905  42.5236082  64.3538237  40.7662344  42.6205635
  64.1625881  39.2341971  41.9844675  62.9295588  40.2212906  41.9672108
  59.6840620  41.2270689  48.8174677  60.3078508  41.4809799  49.8476648
  58.5203600  41.9165993  48.6318159  58.0057144  41.7754364  47.7743101
  57.9087543  42.9234409  49.4340229  58.5142136  43.2652712  50.2734709
  57.5299740  44.1135406  48.5064983  56.8368721  43.6740255  47.7891874
  56.9681549  44.8101473  49.1287518  58.6279726  45.0605822  47.9283667
  59.2768478  45.4165792  48.7285709  59.5259285  44.2558193  46.9508696
  60.2104044  43.6279821  47.5213194  58.8441133  43.6972380  46.3096046
  60.2050924  44.9011040  46.3936949  57.9635429  46.2692213  47.3143387
  57.3077154  45.8682251  46.5415525  57.3598719  46.8016672  48.0493116
  58.7417412  46.8491793  46.8181944  56.6494656  42.3393488  50.1064825
  55.8675814  43.0185938  50.7120180  56.3338614  41.0453129  49.8675060
  56.7859077  40.6320524  49.0644073  55.3276253  40.2500916  50.5299950
  55.3304863  39.3116999  49.9754572  55.7292414  40.0787354  51.9834709
  56.7186308  39.6232986  51.9411182  55.8858776  41.0971594  52.3389673
  54.8218822  39.3474221  52.9474020  54.2617464  38.2406688  52.8360081
  54.4856501  39.9199152  54.0290403  53.8512516  39.4122696  54.6289873
  54.5991373  40.9099245  54.1936588  53.8700628  40.7760096  50.2683163
  53.0792189  40.9961224  51.1470318  53.6033010  40.8835268  48.9638281
  54.3520546  40.5401278  48.3794022  52.3734188  41.4553642  48.3546495
  51.7596769  41.8941069  49.1413641  52.8128004  42.7555609  47.5835466
  53.1909561  42.4644566  46.6035700  51.8438339  43.2540655  47.5570345
  53.9245796  43.7030983  48.1368494  54.8933744  43.2398987  48.3238792
  54.1562605  44.7793007  47.0546770  54.8414469  45.4895592  47.5174427
  54.6204090  44.2910480  46.1977768  53.2041931  45.2364826  46.7851305
  53.4146070  44.4393158  49.4058990  54.1714668  45.1210499  49.7938395
  52.4045563  44.8352146  49.3002224  53.2689667  43.7797546  50.2613974
  51.4316845  40.5022812  47.5510836  51.1857033  40.7883215  46.3876295
  51.0242510  39.2983079  48.0810213  51.3052273  38.8603783  49.3958187
  51.1115313  39.6785951  50.0894356  52.3333549  38.4987140  49.4116974
  50.3060675  37.6693034  49.6398497  49.2514801  37.8495669  49.8483181
  50.8164644  36.9531965  50.2838898  50.2698326  37.0870113  48.2323313
  49.4496441  36.3854885  48.0798388  51.1843967  36.5242720  48.0452490
  50.1836205  38.3198738  47.3233461  50.5304623  38.0421543  46.3280201
  48.8475943  38.9652252  47.0564222  48.4628201  39.1214585  45.9126997
  48.2001400  39.3934941  48.1270075  48.6002684  39.2506385  49.0432978
  46.7776728  39.8550653  47.9786730  46.2576246  39.0443468  47.4683905
  46.0490608  40.1065397  49.3332338  46.6725779  40.8736467  49.7924471
  45.0138283  40.4237890  49.2077303  46.0032606  38.9179516  50.2426767
  46.0588074  39.0138292  51.4459515  45.5800867  37.8026128  49.8439360
  46.6169643  41.0961246  47.1215773  45.6024981  41.2805462  46.4417744
  47.6736259  41.9380808  47.0720720  48.4280968  41.6739225  47.6894045
  47.7616072  43.1895781  46.3355827  47.1199894  43.9701223  46.7444706
  49.1754580  43.6712742  46.3444185  49.4072771  43.8966322  47.3853683
  49.8042393  42.7945328  46.1893225  49.4445229  44.8113918  45.4765224
  49.1600657  46.1496401  45.8048058  48.6467457  46.3103962  46.7413187
  49.3210316  47.1728420  44.8860645  49.1017771  48.1939030  45.1613188
  49.8452091  46.9353724  43.6462879  50.1814747  47.9404831  42.7799082
  50.0180292  48.7549067  43.2611513  50.1069736  45.5928707  43.3211279
  50.6065178  45.3633261  42.3915243  49.9960852  44.5670748  44.2385006
  50.3917837  43.5955811  43.9815521  47.2725630  42.9825783  44.8555708
  46.2730742  43.5646820  44.3653536  47.7446461  41.9386053  44.1685057
  48.4797144  41.3292170  44.4977903  47.3762369  41.5286684  42.7457762
  47.5536108  42.4457550  42.1839952  48.4734488  40.5982971  42.2137785
  48.5119534  39.8178148  42.9736900  48.1822252  40.1496315  41.2640476
  49.8268986  41.3210154  42.0940638  50.8298779  41.1628437  43.0518103
  50.5943918  40.5620480  43.9178324  52.0613384  41.6718388  42.8575134
  52.8783274  41.3158035  43.4675741  52.2753143  42.4854231  41.7086124
  53.5268354  42.9388285  41.4303541  53.8813782  43.3906364  42.1996212
  51.2875462  42.7320576  40.7384348  51.5179110  43.3405972  39.8764491
  50.0256300  42.1025896  40.9454060  49.1957951  42.3230457  40.2902937
  45.9513998  40.9620142  42.5594807  45.5060863  40.6882858  41.4109850
  45.2563858  40.7195044  43.6975670  45.6686497  40.9978914  44.5765734
  43.8828516  40.2612734  43.6932468  43.5449553  39.9479580  42.7054405
  43.6669016  39.1238308  44.7372103  43.9793062  39.2659068  45.7717705
  42.5837088  39.0030503  44.7514963  44.2300653  37.8056979  44.1544724
  43.7793732  37.0400977  44.7860003  44.0289831  37.6805592  43.0905104
  45.7615137  37.8652954  44.3626118  46.2391949  38.5026693  43.6185217
  45.9791136  38.4586596  45.2506781  46.4386368  36.5233850  44.6046972
  47.3975897  36.7083859  45.0887299  45.9264183  35.9818268  45.3999615
  46.4841700  35.7225585  43.3693647  46.8815470  34.7948003  43.4075594
  45.5371857  35.6256819  43.0318260  47.0563650  36.1881590  42.6795006
  42.9250860  41.3701677  43.9999914  41.8535137  41.4301491  43.4512377
  43.3977699  42.3763657  44.7791290  44.3312216  42.2163725  45.1300859
  42.6765251  43.6306238  45.1469088  41.6195154  43.4712267  45.3600264
  43.2024384  44.1908360  46.4850855  44.2868996  44.2821550  46.5459442
  42.5485420  45.5644703  46.9247341  41.4946079  45.6169891  46.6516829
  42.6093483  45.8528376  47.9741383  43.0114222  46.2921095  46.2581158
  42.8413582  43.1913996  47.6537657  41.7621994  43.0449200  47.6990795
  43.2032585  42.2498512  47.2407055  43.5295630  43.3724213  49.0131283
  44.5648003  43.5108614  48.7013102  43.1593275  44.2445040  49.5521069
  43.4182453  42.5797653  49.7529936  42.7307272  44.6018839  43.9512157
  41.7251682  45.2326298  43.5084295  43.9430666  44.8022747  43.4631491
  44.6839428  44.2534018  43.8753843  44.3068266  45.8211088  42.5273657
  43.5830641  46.6339970  42.5863934  45.6618261  46.4389229  42.9358768
  46.3613415  45.6085968  42.8392029  46.1390972  47.4806452  41.9595337
  47.1876621  47.6855659  42.1754551  46.0012197  47.2492886  40.9033346
  45.5280685  48.3597469  42.1643066  45.5889463  46.9244862  44.3594980
  45.4324341  46.0928297  45.0464916  46.5200377  47.4383545  44.5984697
  44.5709324  47.9781485  44.6718740  43.5403156  47.6286077  44.6106148
  44.7821760  48.2238436  45.7126045  44.6634912  48.9122868  44.1178751
  44.1832161  45.4235029  41.0563803  45.1200914  44.7873831  40.5714226
  43.1983614  45.9343910  40.2954721  42.6240349  46.6300488  40.7496881
  42.9198837  45.6167030  38.9113188  42.8332615  44.5498419  38.7053919
  41.4506674  46.0900402  38.5824156  40.7272482  45.5841875  39.2218494
  41.2164879  47.1356392  38.7823844  41.1587238  45.8055592  37.0771718
  41.8216562  46.3850069  36.4346266  41.2479067  44.7339010  36.8991399
  39.7293901  46.3429689  36.6348147  39.6090961  47.3837185  36.9356036
  39.5990753  46.3028002  35.5533791  38.5837126  45.4259253  37.2108531
  38.8359737  45.3578997  38.2690787  37.6507783  45.9832335  37.1263504
  38.4715390  44.1317987  36.4568186  38.0446434  44.2982674  35.5567360
  39.3862367  43.7188196  36.3433218  37.9432154  43.4959173  37.0370126
  43.9960289  46.1392260  37.9735017  44.3588591  45.3283405  37.1488261
  44.6414948  47.3490667  38.2384014  44.2446232  47.8098774  39.0447783
  45.7516861  47.9904270  37.5477147  46.0477734  47.3788071  36.6954517
  45.3350592  49.3676043  37.0132184  45.0297689  50.0466442  37.8093410
  46.3026142  49.9754143  36.0044575  46.3445139  49.4051027  35.0765038
  45.8451557  50.9353065  35.7647872  47.2781038  50.0431013  36.4860606
  44.2234373  49.2779255  36.1669540  44.5192099  48.7525463  35.4198933
  46.9344378  48.1904078  38.5114741  47.0334387  49.2481518  39.1075754
  47.8274632  47.2177887  38.6854267  47.6934147  45.8403778  38.2211518
  47.7109814  45.6890011  37.1418571  46.8201494  45.3937531  38.6965823
  48.9497280  45.1346779  38.7060094  49.3007755  44.3953085  37.9861498
  48.8456059  44.5896482  39.6441984  49.9561834  46.2215710  38.8411832
  50.3635883  46.3682747  37.8408813  50.7702017  46.0224152  39.5381856
  49.1775131  47.4345732  39.2501235  48.9995241  47.4780512  40.3246212
  49.8461914  48.7113333  38.7254906  49.6276999  49.0780401  37.5846577
  50.5873251  49.4554949  39.5366454  50.7686996  48.9975166  40.4183817
  51.3970137  50.5749941  39.0435338  51.8473625  50.3775549  38.0707455
  50.4191494  51.7934942  38.9094639  49.5473194  51.5440416  38.3046627
  49.9213076  51.9127941  39.8717618  51.1222506  53.0340672  38.3821201
  50.4902983  53.9208031  38.3327413  51.8455553  53.3622360  39.1285992
  51.9923258  52.9649544  36.7658472  50.5814648  52.6253748  35.6144238
  49.8913050  51.8397856  35.9220481  50.0206280  53.5471392  35.4597926
  50.9947634  52.1395683  34.7305250  52.5374937  50.9214020  40.0292253
  52.2301769  50.9828901  41.2294149  53.7817669  51.0515976  39.4522953
  53.9702177  50.8036518  38.4915113  54.9083138  51.4618492  40.2614021
  54.5788431  51.7804766  41.2503576  55.8130264  50.1829481  40.5609608
  56.7600203  50.4154491  41.0480404  55.2954340  49.4970036  41.2315416
  56.2219954  49.2832518  39.4099784  57.0708132  49.7397089  38.6270475
  55.5237436  48.2437086  39.2198300  55.6468868  52.5659227  39.4927788
  55.5432844  52.7055597  38.2997179  56.3315296  53.4350204  40.1787043
  56.6856337  53.0423307  41.0392284  57.0189476  54.5682192  39.6790671
  56.4458847  55.1841068  38.9859700  57.5426912  55.5940914  40.6809759
  56.6506720  55.9374762  41.2048912  58.1116438  54.9978256  41.3943195
  58.2600546  56.8478727  40.1993132  59.1534376  56.5098286  39.6742368
  57.6702452  57.3229551  39.4153976  58.5914707  58.0436850  41.5249109
  59.4015741  57.0497370  42.8149891  58.6705446  56.4032793  43.3005714
  60.2428102  56.4352703  42.4942541  59.6418381  57.7293348  43.6326218
  58.1857777  54.1266394  38.7705636  58.5310602  54.7969961  37.7758169
  58.7714911  52.8987122  38.9411855  58.5978317  52.3572302  39.7758961
  59.6922207  52.1756601  38.0272341  60.5795336  52.7952576  37.8973460
  59.8471594  51.1865044  38.4581304  59.0477133  52.0734119  36.6218853
  59.6636105  52.4487782  35.6281996  57.8087854  51.5950871  36.5512705
  57.3498583  51.2328959  37.3748612  56.9386196  51.4784288  35.3539515
  57.3785734  50.8506775  34.5790553  55.5066776  50.8944845  35.6047130
  54.9640131  51.5747690  36.2610888  54.6397400  50.5386782  34.4488382
  55.1169777  49.8808670  33.7224555  53.7173510  50.0451946  34.7550750
  54.4001102  51.4966393  33.9873338  55.7725239  49.6496296  36.1961102
  56.0948992  49.7546339  37.0942473  56.7843771  52.7949572  34.6417332
  57.1288824  52.8414011  33.5093546  56.4575005  53.8598824  35.4107451
  56.2705564  53.6303043  36.3763785  56.2410116  55.2164412  34.8347497
  55.5621290  55.0734711  33.9940476  55.6970930  56.1530495  35.9132695
  56.4661598  56.3219738  36.6669965  55.4212379  57.4756479  35.2733040
  56.2261820  57.7192879  34.5799017  54.4955158  57.3998833  34.7028685
  55.3598976  58.2463408  36.0416627  54.4736671  55.6588125  36.7447758
  53.7446642  55.3276634  36.0051847  54.8725176  54.7991514  37.2833014
  53.8830853  56.6016626  37.7903962  53.1196547  56.0996103  38.3847213
  54.6792746  56.8914127  38.4761286  53.3981419  57.4196625  37.2576618
  57.6496267  55.7262564  34.2654872  57.7104521  56.3126755  33.2237101
  58.7379837  55.5904722  35.0400519  58.6533689  55.1715422  35.9551692
  60.0514364  55.8276129  34.5336223  60.1462984  56.8600225  34.1970992
  61.0641766  55.6730843  35.6725335  60.7140350  56.1266851  36.5997624
  61.2234402  54.5997858  35.7762575  62.3999786  56.3198662  35.3542709
  62.9194784  55.8272028  34.5323801  62.3268938  57.3624325  35.0447440
  63.2481432  56.2748814  36.6548514  62.7075386  56.8151522  37.4319983
  63.3903170  55.2184582  36.8825674  64.6390247  56.9634151  36.2841272
  64.9917936  56.5153313  35.3552127  64.5476627  58.0405331  36.1442351
  65.6178522  56.7452335  37.3410678  65.2976370  57.2642994  38.1461358
  65.7416582  55.7556915  37.5010157  66.5213060  57.0686531  37.0260000
  60.4484510  54.9926519  33.2336235  61.0299349  55.5986214  32.3333645
  60.1122618  53.7145996  33.1049919  59.8116589  53.3094311  33.9799619
  60.1191473  52.9750681  31.8431878  61.1675930  53.0679703  31.5599227
  59.9063444  51.4950418  32.0411062  59.1431475  51.2971735  32.7937531
  59.6066904  51.0743141  31.0812593  61.2081528  50.9055138  32.4819255
  61.9979334  50.8859396  31.7309475  61.6964436  51.5052509  33.2500267
  61.1960983  49.4176149  32.8650498  60.7744884  48.8028097  32.0698380
  62.2240543  49.1017580  33.0429077  60.4335785  49.1957426  34.1002846
  60.7782173  49.8331165  34.9145818  59.4144440  49.4691181  33.8269114
  60.3669691  47.7471638  34.5604277  61.2546682  47.3258686  34.7940850
  59.8950434  47.7782011  35.4528522  59.9632978  47.1558332  33.8480496
  59.2424345  53.5814524  30.7117939  59.8004627  53.8282824  29.6517515
  57.9827547  53.9527321  30.9673572  57.6904154  53.8054705  31.9228435
  57.0325375  54.5157909  30.0214410  56.9493961  53.7726068  29.2284298
  55.6505632  54.7437334  30.6396079  55.7361841  55.1510763  31.6470003
  55.0557852  55.4037666  30.0081825  54.8974371  53.3770847  30.7693887
  54.6705246  53.0037451  29.7707748  55.4335022  52.5907421  31.3008046
  53.6072731  53.4816790  31.5178990  53.9220142  53.7931204  32.5139141
  52.9081392  54.2043066  31.0970402  52.8436375  52.2551775  31.5595555
  53.3592558  51.3867903  31.5714097  51.5573120  52.0320892  31.8024158
  50.6443834  52.9517078  32.0845699  50.9242964  53.9218426  32.1087813
  49.6985817  52.6874685  32.3206401  51.1692762  50.7419682  31.9026423
  51.8593645  50.0238466  31.7347717  50.2489328  50.5002499  32.2412300
  57.6099730  55.8361673  29.4157934  57.8098726  55.9541225  28.2368016
  57.8428745  56.7784929  30.3254414  57.5759935  56.6867733  31.2952161
  58.6349010  57.9750013  29.9347115  57.9551125  58.5659361  29.3208885
  58.9034986  58.7824535  31.2931943  59.0877771  58.0189419  32.0489693
  59.7775459  59.4310379  31.2342024  57.6855135  59.5599413  31.7488384
  56.8305111  58.8994360  31.8930840  58.0794287  60.1531696  33.0863237
  58.9180565  60.8383656  32.9626369  57.1877623  60.7366180  33.3157086
  58.2978773  59.3446589  33.7839484  57.3139334  60.6623745  30.7716751
  58.2321978  61.1870670  30.5078650  56.9203472  60.3166771  29.8158050
  56.5858507  61.3280725  31.2351894  59.9155617  57.7120352  29.1372347
  60.1460981  58.2839346  28.0508375  60.8165407  56.8576479  29.6228004
  60.5745602  56.2465096  30.3896475  62.1422768  56.5262890  29.0015602
  62.6703358  57.4555159  28.7875557  63.1028128  55.6827497  29.9732399
  63.2330990  56.3012886  30.8612394  62.6492691  54.7092056  30.1592779
  64.4355869  55.4389858  29.3307161  64.3007994  54.7066927  28.5346723
  64.8819780  56.3595200  28.9546251  65.4115057  54.9257898  30.3310752
  65.7159567  53.6979532  30.4433393  65.9425020  55.7345009  31.0795784
  61.9966745  55.9420109  27.5923347  62.8129578  56.2738609  26.7716956
  60.8160114  55.4044485  27.3133278  60.2062654  55.2861309  28.1097603
  60.4053688  54.8778105  26.0177946  61.2656355  54.8481846  25.3490877
  60.1096773  53.3629656  26.1681509  59.2646456  53.3294535  26.8558288
  59.7443533  52.9677343  25.2202964  61.2490034  52.4972486  26.5064287
  61.8511295  51.7557859  25.7271862  61.4913321  52.4417686  27.8214192
  62.1302223  51.7309952  28.1481123  60.8819866  52.9949760  28.4068727
  59.2612123  55.6454086  25.2494550  58.7400341  55.1592493  24.2978430
  59.0338850  56.9163275  25.6504607  59.3665457  57.1913624  26.5635824
  58.1847858  57.9727268  25.0612950  58.2791281  58.7391233  25.8306098
  58.7331247  58.5822582  23.7442851  59.0353298  57.7893353  23.0601430
  58.1024027  59.3956661  23.3855867  60.0362492  59.2732000  24.0394211
  61.1189079  58.7093639  24.2171955  60.0491714  60.5554867  24.1453433
  60.8871460  60.9373331  24.5601821  59.3478680  61.1719894  23.7603879
  56.6804409  57.6207829  24.9610209  56.0310984  58.0093908  23.9810848
  56.1220789  56.8766308  25.8954620  56.6901922  56.6820765  26.7075539
  54.7693634  56.2679577  25.8409953  54.7322845  55.4906940  25.0777245
  54.7044277  55.6321335  27.2550464  55.5945253  55.0297356  27.4365449
  54.5680141  56.4523458  27.9598475  53.6047602  54.6207476  27.4512243
  53.8583660  53.3357954  26.9863749  54.8385811  53.0516291  26.6330767
  52.9740143  52.2800350  27.2463679  53.1309271  51.2936640  26.8354535
  51.8571377  52.5779200  28.0750680  51.0956049  51.5754652  28.5766673
  51.0802889  50.7867861  28.0295420  51.6093922  53.8654423  28.5321069
  50.7347250  54.1713047  29.0869093  52.4422884  54.9548769  28.1919074
  52.2891283  55.9811115  28.4915519  53.5505533  57.1991014  25.7763720
  52.4836206  56.7686605  25.3150177  53.6995125  58.4652662  26.1874366
  54.6186352  58.7636280  26.4811826  52.5742817  59.3625879  26.3037610
  51.6439724  58.7946033  26.3079953  52.7767754  60.0211191  27.6606989
  53.6588240  60.6606960  27.6285124  51.9013262  60.6482744  27.8291297
  52.8670883  59.0260124  28.8841486  51.7459774  58.3103752  29.3543839
  50.7966518  58.4391165  28.8557744  51.8846130  57.4161243  30.4155874
  51.0844183  56.7639732  30.7330537  53.1177664  57.2604752  31.0859799
  53.2520914  56.3872910  32.0341635  52.3863411  56.0191154  32.2252703
  54.2351627  57.9599380  30.6408048  55.1878977  57.7277184  31.0933185
  54.1346788  58.8349009  29.4908309  55.0115728  59.3485022  29.1252065
  52.5711060  60.4604149  25.2698541  53.5957193  61.0430527  25.0242519
  51.4723063  60.8190584  24.6505642  50.6518316  60.3147936  24.9549389
  51.3585567  62.0344067  23.7733126  52.3141193  62.3224497  23.3350945
  50.4885960  61.6511965  22.5978422  50.6435251  62.3808718  21.8030667
  50.7491827  60.7241106  22.0872426  49.0074062  61.6664076  22.8288031
  48.1622124  60.6983376  23.3142495  48.4928989  59.7011852  23.5647225
  46.8979597  61.1476374  23.4775782  46.2000656  60.4955292  23.8059115
  46.7241478  62.3285198  22.8116655  45.6403542  63.2618427  22.6688695
  44.6792936  63.1572342  23.1503534  45.7884645  64.3941593  21.8618870
  45.0139236  65.1412916  21.7709112  47.0411825  64.6815872  21.2492633
  46.9578648  65.5079508  20.5589128  48.1536007  63.8624191  21.5554667
  49.0749502  64.2083073  21.1106396  48.0294704  62.7296829  22.3985529
  50.8121395  63.2978296  24.4285846  50.7482004  64.3818092  23.8174915
  50.2679920  63.1612253  25.6264281  50.5336046  62.2719669  26.0248923
  49.4939518  64.1826200  26.3321042  49.9039030  65.1405048  26.0119390
  48.0446005  64.0902948  26.0961676  47.8797674  64.3502474  25.0505328
  47.6697874  63.0816412  26.2700462  47.2157192  64.9622393  26.9622183
  46.9728041  64.5445013  28.0972099  46.8683624  66.2108707  26.7204380
  46.4120007  66.6530752  27.5054812  47.1069145  66.7675734  25.9121871
  49.7376537  63.8973570  27.8368044  49.7881365  62.7604914  28.2049680
  49.9993896  64.9430704  28.5893917  50.0079966  65.8264828  28.0998898
  50.4438305  64.8116064  29.9681759  51.2280321  64.0564585  30.0217938
  50.9658861  66.2193537  30.3011107  50.2061272  66.9575596  30.0443411
  51.2133169  66.3620663  31.3530183  51.8648052  66.4402342  29.7255683
  49.2749834  64.3397713  30.9569192  49.5562220  63.7154388  31.9721484
  47.9751015  64.5737505  30.6598973  47.7352190  64.9294758  29.7455573
  46.8797302  64.0981054  31.5155435  47.1206903  64.4248629  32.5271106
  45.4832840  64.6427631  31.0826635  45.1694965  64.3723822  30.0744319
  44.6591330  64.1972542  31.6397977  45.4240894  66.1509609  31.3057566
  46.0481405  66.5797186  30.5216479  44.4031048  66.4948130  31.1400628
  45.7238960  66.7129803  32.6811767  45.0657845  66.2324142  33.6368704
  46.7101383  67.5684929  32.7758193  46.9418669  67.9110003  33.6972809
  47.1508265  67.9076719  31.9327021  46.8536425  62.6113796  31.7152667
  46.4554358  62.2231531  32.7643609  47.1757174  61.7898130  30.6541467
  47.3114538  62.1933651  29.7382760  47.3910046  60.3325367  30.7062745
  46.4962101  59.8122263  31.0479140  47.5720549  59.8281097  29.2613339
  48.4970856  60.2288198  28.8467836  47.8223562  58.7699270  29.3368316
  46.4381218  60.0353765  28.2619262  46.2531567  61.0866213  28.0410838
  46.6386557  59.4281912  27.3791981  45.1161432  59.4337034  28.7614012
  45.1490688  58.2577753  29.2456460  44.0303326  60.0348425  28.5207129
  48.5720634  60.0057220  31.6164780  48.4197903  59.1046381  32.4516797
  49.7172546  60.6811619  31.4627647  49.7249508  61.4442301  30.8011246
  50.8430147  60.4272890  32.3711181  51.1036158  59.3699312  32.3243260
  52.0268726  61.2932873  31.8308330  52.0786142  61.1530590  30.7511306
  51.8883944  62.3699236  31.9297671  53.5476351  60.7273483  32.6756668
  53.4951258  59.4132566  32.4405026  50.5711079  60.7615423  33.8762927
  50.9021950  59.9689913  34.7685409  49.8335600  61.8867254  34.1534400
  49.6556759  62.5010824  33.3717585  49.3760204  62.3279667  35.5032110
  50.2330589  62.2907305  36.1756659  48.8420343  63.7631750  35.1720619
  48.1896353  63.7176561  34.3000507  48.0224848  64.2050076  36.3915086
  48.6956263  64.2877531  37.2448206  47.5016499  65.1489496  36.2308812
  47.2348166  63.5138178  36.6913962  49.9917126  64.7875881  35.0457239
  50.5540705  64.7641563  35.9791613  50.6147432  64.4856071  34.2038512
  49.6256399  66.2744570  34.7977948  50.5017757  66.9223642  34.8243237
  49.0985966  66.4435387  33.8587856  48.8423204  66.6567326  35.4523039
  48.4359217  61.3466454  36.0186386  48.4865427  60.9865665  37.1790957
  47.5089025  60.7474899  35.2522826  47.1845961  61.1591530  34.3888831
  46.8340731  59.5924854  35.6882715  46.3683271  59.9712276  36.5980721
  45.6404305  59.3875647  34.7081923  45.0251150  60.2765608  34.5697355
  46.1587906  59.2480755  33.7595367  44.6886778  58.2657242  35.0633526
  44.0170002  57.9978609  34.2477536  45.2619505  57.3580599  35.2520609
  43.8697433  58.5848999  36.3197613  43.7484741  59.7559690  36.7642236
  43.3051252  57.6060867  37.0360255  42.9936743  57.8271008  37.9710388
  43.4243488  56.6330910  36.7927694  47.6947308  58.4063864  36.1714053
  47.3539782  57.8441906  37.2374296  48.7358761  57.9546404  35.5221629
  49.0577078  58.3638525  34.6566749  49.5836067  56.9437742  36.1076546
  49.0206146  56.0461473  36.3633966  50.6185246  56.4796591  35.0447774
  51.1021566  57.4264717  34.8044848  51.4075661  55.8516693  35.4584789
  50.1066446  55.7646322  33.8352394  49.0072536  55.1826859  33.8526630
  50.8245659  55.4892254  32.8712416  50.2003956  57.2339821  37.5346327
  50.1993608  56.3917971  38.3947754  50.7477808  58.4416914  37.8253937
  50.8850098  59.0135050  37.0042348  51.2128496  58.8303566  39.1606236
  52.0655775  58.1957579  39.4019508  51.7953920  60.2359295  39.1384935
  51.1171055  60.9297609  38.6418748  51.8356514  60.5804253  40.1718426
  53.1958532  60.4468966  38.6003494  54.3339205  60.1664162  39.3863201
  54.1280651  59.6633482  40.3195715  55.6104803  60.4192162  38.8758159
  56.5094090  60.1927853  39.4299412  55.6748009  60.9341192  37.5317240
  56.6349554  61.2235498  37.1307993  54.5700788  61.1811638  36.7302871
  54.6211767  61.4447403  35.6841922  53.2851028  60.9954262  37.2462010
  52.3824883  61.1439323  36.6720605  50.0490522  58.8011885  40.1167440
  50.2102709  58.3648062  41.2666607  48.8683939  59.3237352  39.6783686
  48.7608004  59.7313738  38.7605691  47.7011824  59.2149544  40.5585432
  47.8783607  59.6485758  41.5427589  46.5722466  59.9728251  39.8189354
  46.9722939  60.9640217  39.6054196  46.3266182  59.5530796  38.8434458
  45.2787113  60.0462103  40.6166220  45.3007650  60.3574896  41.7736053
  44.1529512  59.7661161  39.9794102  43.3063221  59.9698639  40.4910851
  44.1249037  59.6200085  38.9804268  47.3226261  57.7318668  40.9386396
  46.7955160  57.4528503  42.0054865  47.4348402  56.8386650  39.9701309
  47.7452755  57.1119499  39.0486956  47.0178843  55.4308987  40.1386881
  45.9854984  55.3555918  40.4801798  47.1079874  54.7192812  38.6983681
  48.1607246  54.6799469  38.4185576  46.6106272  53.3470106  38.8326454
  46.9967699  52.6885033  39.6106935  45.5349684  53.3222914  39.0071416
  46.7632484  52.8114796  37.8956223  46.2932873  55.4631996  37.8838801
  46.7269278  56.2975502  37.6904392  47.8391886  54.6949625  41.2133551
  47.3108006  53.9578915  41.9887686  49.1326761  54.9921036  41.3153076
  49.4192410  55.6849194  40.6385612  50.1064587  54.3712616  42.2399616
  50.1139498  53.2875633  42.1231031  51.5167427  54.8921347  41.9143677
  51.7812109  54.6505880  40.8848953  51.6331244  55.9675503  42.0486593
  52.5271130  54.1653872  42.8065825  52.3150873  54.2928886  43.8681316
  52.5178814  53.0901909  42.6278162  54.1969585  54.7753334  42.3539209
  54.2416382  56.4104414  43.0426168  53.4339094  56.9957924  42.6032448
  54.1099310  56.2653780  44.1148663  55.2173996  56.7794847  42.7267170
  49.7660017  54.6842670  43.7301731  49.6330118  53.7664127  44.5585966
  49.4444084  55.9264994  44.1013241  49.5539045  56.6663265  43.4225273
  48.9806604  56.2748957  45.4578924  49.6071625  55.9377003  46.2836647
  48.9137125  57.8192806  45.6531191  48.1303930  58.2168961  45.0078154
  48.7975073  57.9897499  46.7234182  50.2210188  58.4978437  45.1636219
  51.4423656  58.1007624  45.6651592  51.4210844  57.4018240  46.4882183
  52.6416683  58.7063408  45.2143908  53.5675812  58.3566952  45.6466293
  52.6157665  59.8059893  44.3525267  53.4427786  60.4881668  44.2218113
  51.3548803  60.2167320  43.9043427  51.2334442  61.0398531  43.2157707
  50.1932049  59.5574427  44.2522860  49.2699957  59.8546076  43.7771177
  47.5243425  55.7635880  45.6066942  47.2368860  55.1465988  46.6120958
  46.6337729  55.8157539  44.6041632  47.0365906  56.2884426  43.8076639
  45.2021456  55.5140400  44.6644831  44.7078419  56.1288881  45.4166365
  44.5423412  55.8271170  43.3117056  45.1069593  55.3102541  42.5357151
  43.0547094  55.3145599  43.2488680  42.9832792  54.2708874  43.5550451
  42.3891783  55.9241962  43.8600302  42.6317310  55.4039478  42.2482681
  44.4152451  57.2073412  43.1138563  45.1512384  57.4671268  42.5549078
  44.9875784  54.0578747  45.1024628  44.2234659  53.7303114  46.0014486
  45.8229589  53.1701326  44.4685125  46.4126730  53.6138010  43.7789440
  46.0994196  51.7743254  44.7956753  45.1775455  51.2195444  44.6211243
  47.2456264  51.1906147  43.9257669  48.0481863  51.9281769  43.9248323
  47.6717663  50.3070211  44.4009113  46.7912245  50.9055471  42.5530481
  45.6127930  51.0866785  42.2300625  47.6201057  50.3515625  41.6461134
  47.3012352  50.2997541  40.6891727  48.5784674  50.1738930  41.9108343
  46.4275312  51.4864159  46.2609291  45.8217001  50.5697966  46.8851614
  47.3138809  52.3377514  46.8298769  47.5363827  53.1656313  46.2958241
  47.7716684  52.2681713  48.2793427  48.1572866  51.2614727  48.4404469
  48.9650822  53.1541204  48.5635567  48.7413502  54.1957474  48.3331919
  49.1235018  53.1946039  49.6412230  50.4742575  52.3990774  47.7880287
  50.1908255  52.9900408  46.6238451  46.5618992  52.3705816  49.2046833
  46.3736868  51.4495850  50.0188160  45.7179070  53.4239769  48.9910698
  45.9440517  54.1210604  48.2960510  44.6142101  53.6625957  49.8742914
  45.0636387  53.7147665  50.8659506  43.8900375  54.9766636  49.5611954
  43.2906866  54.9845123  48.6507988  43.2463980  55.2151918  50.4079151
  44.9600935  56.1216927  49.4231462  45.0869703  56.8603420  48.2358932
  44.4346046  56.7805147  47.3788929  46.0543776  57.8332567  48.1262779
  46.1092567  58.3796740  47.1963215  47.0642567  58.0503988  49.0851593
  47.9374313  59.0250397  49.0010023  47.6907825  59.7775030  48.4582663
  47.0140934  57.2118711  50.2744865  47.7750111  57.3293257  51.0318518
  45.9283352  56.3302803  50.4640532  45.9520388  55.7186031  51.3538170
  43.5903120  52.5163889  49.9440622  43.0457258  52.2255135  51.0080576
  43.3727264  51.8546486  48.7681723  43.7516212  52.2255278  47.9085207
  42.4700212  50.8220339  48.5002089  41.5623903  50.9360266  49.0929317
  42.0626783  50.8156395  47.0493698  42.9356766  51.0442972  46.4380693
  41.4415264  49.4789600  46.5528393  41.0401201  48.7938404  47.2995520
  40.6198835  49.7389936  45.8854628  42.2105980  49.0571642  45.9057617
  41.0538292  51.9816303  46.7964554  40.1132917  51.5329456  47.1161079
  41.4163446  52.8349304  47.3696518  40.8307695  52.4022913  45.3487015
  41.8442297  52.5509596  44.9760151  40.2793550  51.6929007  44.7316027
  40.3167057  53.3571672  45.2388859  42.9667044  49.5078421  49.0571356
  42.2385025  48.7641716  49.6698284  44.2679453  49.2452574  48.9467096
  44.7720289  49.7757196  48.2505655  44.8588848  48.0503368  49.4261694
  44.2877388  47.2596931  48.9395761  46.3504791  48.0562592  48.8505507
  46.3090420  48.1570959  47.7660179  46.7366600  48.9809513  49.2793989
  47.3562336  46.8516922  49.0899944  46.8767023  45.5344296  49.2573071
  45.8472824  45.2505493  49.0957260  47.8094578  44.5737791  49.6869707
  47.4704456  43.5674858  49.8840857  49.1816473  44.9242640  49.9713564
  50.0774479  44.0422678  50.4468441  49.7419119  43.1455660  50.5171824
  49.5685291  46.2836361  49.8636627  50.5972099  46.4223766  50.1619434
  48.6865520  47.2234964  49.2871475  49.1042519  48.2064676  49.1268587
  44.9254847  47.7892733  50.9603596  44.4687986  46.7378283  51.3773823
  45.1092672  48.8879633  51.7345428  45.2042580  49.7907591  51.2917805
  45.6396484  48.7241888  53.0831146  45.3098726  47.7380228  53.4099531
  47.2229385  48.9467573  53.0858517  47.5661516  48.4264898  52.1916294
  47.3381281  50.0243759  52.9693604  47.9205322  48.2822609  54.2814493
  48.5389853  47.2023344  54.0574694  47.7824783  48.8563681  55.4170609
  48.2033348  48.3483505  56.1818552  47.3742533  49.7801876  55.4151583
  44.9356937  49.5984316  54.0999651  44.6686172  50.7591629  53.8009596
  44.6701241  49.0656710  55.2741957  44.7981310  48.0733967  55.4124165
  44.1188765  49.8326778  56.4021826  43.0908680  50.1240015  56.1866999
  43.9452410  48.9426994  57.6333857  43.1797552  49.4215965  58.2439470
  43.5122442  47.9671955  57.4120045  45.1734972  48.5659313  58.4748983
  45.8077574  47.9140759  57.8741503  45.6222248  49.4815159  58.8602018
  44.8071289  47.6842785  59.6314192  43.9536667  48.0210209  60.2198935
  44.5859861  46.6876030  59.2495346  45.8973742  47.5741386  60.7297564
  46.1023760  48.6055994  61.0163975  45.5259466  47.0952034  61.6357183
  47.1994781  47.0176840  60.2118349  47.9610682  47.1619511  60.8593512
  47.1265459  46.0238743  60.0471449  47.5149441  47.4672413  59.3642044
  44.9001169  51.1446190  56.7125320  46.0687542  51.1927271  56.4151239
  44.2975092  52.1560574  57.4015808  42.8376102  52.2732782  57.4760342
  42.3989725  51.6550732  58.2593155  42.4266577  52.0314455  56.4958620
  42.5532389  53.7210035  57.6926517  41.5862656  53.9515543  58.1397629
  42.6466990  54.2687082  56.7548943  43.8060808  54.0877151  58.5682869
  43.6054277  53.8822174  59.6197653  44.0336084  55.1532745  58.5380459
  44.9286795  53.3445501  57.8696394  45.1488113  53.8432407  56.9257355
  46.1355639  53.0856562  58.7255621  46.2005472  52.0208073  59.2619562
  47.0116663  54.1013527  58.8454866  46.8547773  54.9943495  58.4004688
  48.0602932  54.1774702  59.8412180  48.4687281  55.1727867  60.0162125
  47.5634050  53.9058495  60.7725716  49.2937899  53.2831240  59.6095371
  50.3400803  53.4971762  60.1260042  49.1694641  52.2753191  58.7522840
  48.2856512  52.3131514  58.2648993  50.2024126  51.3828993  58.2466030
  50.8543968  51.0907984  59.0698290  49.5524120  50.1311111  57.5880623
  48.6357546  50.4695654  57.1050644  50.2177715  49.7437668  56.8164730
  49.0313339  49.0683937  58.4944153  48.6421156  47.9842854  57.9800415
  48.9948988  49.2421341  59.7196674  51.1260414  52.1413708  57.2201109
  50.6794357  52.8642797  56.3195419  52.4659348  52.0960951  57.4543333
  52.8694010  51.4780283  58.1437588  53.4627914  52.9370499  56.7042637
  53.1549358  53.9145947  57.0753908  54.8388052  52.5384665  57.2017813
  55.0390863  51.5070438  56.9116926  55.6601191  53.0190563  56.6701984
  55.0114155  52.5568819  58.7478638  54.5135927  53.5075283  59.4314384
  55.5745840  51.5985441  59.3479204  53.3915758  52.9141474  55.1943064
  53.8461828  53.8584232  54.5597792  52.6629829  52.0003414  54.5691013
  52.3426437  51.2008381  55.0966215  52.4156380  52.0333385  53.1344986
  53.3884573  52.3808050  52.7866507  52.1269560  50.7291269  52.3061275
  52.7672386  50.0226593  52.8343773  50.7635069  50.2194738  52.4219561
  50.5386782  50.2382660  53.4883499  50.0253153  50.7820463  51.8503904
  50.7599545  49.2115402  52.0070362  52.6610279  50.8558130  50.8646774
  51.9818926  51.4646196  50.2678347  53.7069893  51.1613321  50.8915758
  52.6655102  49.4688320  50.2054024  52.7738857  49.5487833  49.1237545
  53.5308456  48.9559269  50.6251812  51.9315863  48.6999178  50.4466772
  51.5005779  53.1819677  52.6785088  51.7925787  53.8669825  51.6688013
  50.4387379  53.3989286  53.5179234  50.3729820  52.9891443  54.4387150
  49.4196796  54.4488573  53.3150482  49.3561840  54.4973373  52.2279787
  47.9856634  54.1454077  53.8345146  47.3637438  55.0318909  53.7101889
  47.2662401  53.1594372  52.8472376  47.7676010  52.1916771  52.8605652
  46.1941910  53.1630516  53.0442238  47.3950243  53.5431480  51.8351698
  47.8398800  53.6181641  55.2808762  48.2204056  52.6085567  55.4357576
  48.4893990  54.2723179  55.8625269  46.7738199  53.6825943  55.4987621
  49.9545717  55.7732344  53.7737131  49.6993303  56.8404675  53.1801033
  50.8656979  55.7658100  54.7695112  51.0309124  54.8618793  55.1887035
  51.6554308  56.9533587  55.1977921  50.9901285  57.8141165  55.2654362
  52.3142529  56.7158127  56.6042376  53.1118011  55.9782982  56.5143204
  52.8851604  57.5737667  56.9593096  51.3125849  56.2518549  57.6476812
  50.9808350  55.2420759  57.4060392  51.8775797  56.2284327  59.0120077
  52.2737837  57.2211075  59.2258072  51.1501551  55.9057617  59.7568798
  52.7327871  55.5526829  59.0214014  50.0520658  57.1116590  57.7147436
  50.3339291  58.0915260  58.1001186  49.5547867  57.1723366  56.7466831
  49.3054008  56.7945623  58.4427834  52.7088737  57.4361944  54.1814852
  52.8440475  58.6089039  54.0223455  53.5016918  56.5572691  53.5518646
  53.5231209  55.6134605  53.9108467  54.3381929  56.7872763  52.3583317
  54.9974775  57.5916147  52.6846600  55.2859306  55.5670643  52.1017408
  54.7688627  54.6110964  52.0188808  55.8539629  55.8458996  51.2142277
  56.3368654  55.2740955  53.1912708  56.9330788  56.1639166  53.3933878
  55.8845615  55.0469398  54.1566324  57.4826097  54.0517378  52.6511288
  56.6682196  52.5445080  53.2224703  56.8023682  52.4700737  54.3016195
  55.6289625  52.5566101  52.8939915  57.1867752  51.6930008  52.7818680
  53.5513735  57.2201109  51.1384630  53.9378643  58.2173252  50.5260420
  52.4461365  56.4845467  50.7466888  52.2776461  55.6509304  51.2914753
  51.5719223  56.9563961  49.6899939  52.1376038  57.0451117  48.7625074
  50.5173302  55.8845806  49.5018530  49.8236990  55.8531904  50.3420877
  49.8918247  56.1983871  48.6661673  50.8907413  54.8912287  49.2530346
  51.0260201  58.4249830  49.9007130  51.1820602  59.1790962  49.0071535
  50.4824448  58.7933016  51.0953045  50.2945232  58.1081390  51.8131781
  50.0453091  60.1984501  51.4429760  49.3953562  60.4221964  50.5970430
  49.2638588  60.0695086  52.7122784  48.3928633  59.5023108  52.3840189
  49.8463583  59.6640825  53.5395670  48.7292576  61.3817930  53.3176374
  47.9919577  61.0752439  54.0596008  49.4817066  61.9572449  53.8568783
  47.9664278  62.2796440  52.3097038  47.0899487  61.7502689  51.5742731
  48.1502247  63.5156012  52.3473358  51.1955595  61.2041569  51.3587952
  51.1014652  62.3154306  50.7646847  52.3008680  60.8774042  52.0615530
  52.3651695  60.0248432  52.5992393  53.4884501  61.7405558  52.0510912
  53.2114410  62.7167606  52.4490690  54.5360613  61.2212563  53.0599356
  55.4004478  61.8849707  53.0394030  54.0919924  61.1273766  54.0509415
  54.7369099  60.1803446  52.8064203  54.0274239  62.0600939  50.6156731
  54.2990494  63.1718445  50.2159452  54.2440891  61.0121202  49.7888327
  53.9655924  60.1223993  50.1773500  54.7129583  61.0866451  48.3482790
  55.6323862  61.6672277  48.2729769  54.9170303  59.6254206  47.7772284
  54.0555000  58.9589977  47.7354240  55.2621555  59.8056364  46.7591381
  56.1338758  58.9311790  48.3480549  56.0564756  58.7963915  49.4269133
  56.2173414  57.5580883  47.6269579  55.2586746  57.0596981  47.4832153
  56.5405416  57.6595592  46.5909290  56.8339157  56.9012737  48.2405806
  57.5695848  59.4992304  48.0423260  57.7735901  60.4567146  48.5215998
  58.3319426  58.8275623  48.4370089  57.7396345  59.5122814  46.9657469
  53.6686134  61.8814802  47.5548458  54.1126490  62.7696609  46.7776155
  52.3547125  61.5867329  47.6745129  52.1196365  60.7090282  48.1155062
  51.2634182  62.3604298  47.0160675  51.4692926  62.3222160  45.9463692
  49.9121523  61.6674566  47.2819185  49.9991322  60.6832600  46.8215990
  49.6614695  61.5943289  48.3401775  48.7823057  62.4353123  46.5706444
  48.5174799  63.2800627  47.2065353  49.1802406  62.7646065  45.6107903
  47.5298595  61.6533375  46.2001419  46.8100357  61.1424351  47.1161604
  47.0929003  61.7042542  45.0309181  51.2426090  63.8138390  47.2833252
  51.1314344  64.6359825  46.3873386  51.5954542  64.2973614  48.4953785
  51.7311239  63.6397886  49.2498922  51.7277861  65.7004547  48.7861776
  50.8367586  66.2229395  48.4380722  51.6203976  65.8031178  50.2920723
  50.6173420  65.5204439  50.6115627  52.4206829  65.2178860  50.7450104
  52.0112562  67.2222185  50.8362770  53.0534983  67.4436378  50.6064939
  51.4371300  67.9197979  50.2264738  51.7603540  67.4093819  52.3338890
  50.6807327  67.2865152  52.4200821  52.2649717  66.5863276  52.8398943
  52.2478294  68.7258959  52.9896402  52.4350929  68.5076809  54.0410233
  53.2150936  69.0833616  52.6364660  51.2646532  69.8390770  52.9734612
  51.6129255  70.6303263  53.4957027  51.2186098  70.2475595  52.0508957
  50.3072500  69.6392918  53.2255888  53.0052519  66.3088703  48.0985832
  52.8509712  67.3949575  47.4839878  54.1598845  65.6294346  48.1171417
  54.2271709  64.6686840  48.4213305  55.3182364  66.0850573  47.4005556
  55.4593706  67.1097803  47.7442408  56.6304922  65.3877258  47.8166676
  56.7005873  65.3081226  48.9014959  56.6031408  64.3473291  47.4927425
  57.8874636  66.0549355  47.3005295  57.7972221  65.9430122  46.2200546
  58.1194878  67.4651194  47.7112770  57.4693441  68.1204557  47.1316624
  57.8212023  67.5360441  48.7572670  59.0964985  67.9451799  47.6556206
  59.0623522  65.2615595  47.8084517  59.9024487  65.6690931  47.2460890
  59.2678499  65.2626562  48.8789034  58.8457632  64.2357349  47.5103378
  55.0312614  66.2057734  45.8267355  55.4960442  67.1169043  45.1771164
  54.3630457  65.1957464  45.2160883  54.1554976  64.4243097  45.8340740
  53.8720083  65.2633476  43.8553190  54.7210598  65.2680731  43.1718016
  53.0587292  63.9654016  43.6191559  53.7714863  63.1410599  43.6424446
  52.4437571  63.8168526  44.5067596  52.3760843  63.8812923  42.2982693
  50.9506273  63.9726591  42.1446991  50.2814579  64.0182829  42.9911804
  50.3988600  63.7489557  40.8673143  49.3236208  63.7432194  40.7661819
  51.2851667  63.6639977  39.8130822  50.8874512  63.6729813  38.8090205
  52.6834202  63.5443115  39.9093914  53.2866716  63.4080887  39.0239930
  53.2187653  63.7071180  41.1885643  54.2977810  63.7144613  41.2341166
  53.0039644  66.4727211  43.5754824  53.4160900  67.3613453  42.8100967
  51.8970919  66.5914965  44.3467045  51.6614866  65.8938932  45.0380373
  50.9534121  67.6932430  44.0074635  50.5391216  67.5401163  43.0109644
  49.6908569  67.4762392  44.9719095  50.0563860  67.2292566  45.9686518
  49.2221403  68.4592915  45.0167274  48.6264753  66.5010309  44.4470119
  49.0752983  65.5077314  44.4418001  47.4838495  66.3651657  45.4485703
  47.9262781  66.1534309  46.4219856  46.9413710  67.3056555  45.3521490
  46.8832874  65.5405951  45.0645113  48.0898333  66.8165493  43.0685520
  47.1628761  66.2603474  42.9289484  47.9206419  67.8862858  42.9454803
  48.8389111  66.5794945  42.3130417  51.6101885  69.0942049  44.0676260
  51.2663460  69.9687719  43.2881403  52.5291634  69.3424845  45.0222540
  52.8842354  68.6340332  45.6484604  53.1449461  70.5844164  45.2470207
  52.3881674  71.3685369  45.2701664  53.8080215  70.7671642  46.6124105
  54.1639233  71.7798853  46.8016958  52.9381609  70.5755329  47.2406816
  54.9509001  69.8753309  47.1320438  54.8809385  68.8436031  46.7874575
  55.8422613  70.2700233  46.6443968  55.0952530  69.7667646  48.6626387
  56.1365032  69.3959951  49.2047787  54.0550232  69.8536348  49.4779253
  54.3853569  70.0374603  50.4145098  53.1312895  70.1684618  49.2177343
  54.1230249  70.8966875  44.0507269  54.4409227  72.0497942  43.8894606
  54.5076895  69.8817205  43.2799435  54.3938398  68.9333248  43.6080885
  55.3235483  70.0676250  42.0206499  55.7615900  71.0632801  42.0905638
  56.4626646  68.9655256  42.0038128  55.9853172  68.0007410  42.1753836
  56.9418573  68.9959383  41.0252666  57.5555038  68.9645910  43.0982924
  57.1102810  68.5995102  44.0238190  58.2660055  68.1939125  42.7993870
  58.2688904  70.3273630  43.2019520  57.5480604  71.1232853  43.3890963
  58.8456583  70.3807449  44.1253090  59.1505480  70.6091928  41.9735050
  59.6670580  69.6799040  41.7332315  58.4581566  70.8587694  41.1695147
  60.1547146  71.6391373  42.2294950  59.7165012  72.3889160  42.7451515
  60.7780743  71.2876177  42.9422092  60.5373812  71.9791794  41.3588381
  54.4381571  70.0596142  40.7377672  54.7926664  70.7444906  39.8386812
  53.2740068  69.3270493  40.7669640  53.0114031  68.7751007  41.5710163
  52.2433519  69.5005608  39.6631336  52.7684498  69.3367195  38.7221074
  51.0816765  68.4288979  39.9346566  50.7403374  68.4527731  40.9695578
  49.8694468  68.6786270  39.0463400  49.4162035  69.6635675  39.1584849
  50.1804161  68.5546207  38.0090261  49.1182613  67.9165411  39.2538214
  51.5882778  66.9936466  39.7696400  52.4560690  66.7299891  40.3742266
  50.6752443  66.4047241  39.8570514  52.0434952  66.6525888  38.3485007
  52.2540522  65.5831575  38.3390570  51.2524033  66.8360043  37.6214290
  52.9608965  67.2022963  38.1380486  51.7221928  70.9393263  39.5233703
  51.5952587  71.4881325  38.4296441  51.6168165  71.6679335  40.6740999
  51.6752243  71.2090588  41.5719461  51.3568640  73.1219625  40.7986784
  50.4075956  73.3271742  40.3038216  51.1600399  73.4718323  42.3009443
  52.1227551  73.2098484  42.7398491  51.0254383  74.5449734  42.4364424
  50.1323271  72.7027082  43.1773424  50.3482771  72.5836325  44.3988752
  49.0209675  72.2959995  42.6804638  48.3538771  71.7935848  43.2485056
  48.9744425  72.3551178  41.6732693  52.4356747  73.9771318  40.0768757
  52.2049046  75.1803398  39.7983527  53.6565876  73.4663677  39.6600080
  53.7460423  72.4652481  39.7592974  54.7711611  74.2087650  39.0041947
  54.4630051  75.2541161  38.9846778  56.0685825  73.9960480  39.8745465
  56.3779926  72.9669714  39.6918583  56.8486929  74.6614361  39.5046926
  55.8198786  74.3373108  41.3551378  55.4078722  75.3374529  41.4895678
  55.0862360  73.6802626  41.8222141  57.1142340  74.2045021  42.1949005
  57.3555565  74.9624157  43.1770325  57.9832888  73.4124374  41.8097067
  54.9850607  73.7893534  37.4872327  55.7090235  74.4511175  36.6912293
  54.1880894  72.7467823  37.0478415  53.5622787  72.3445320  37.7309608
  54.0961647  72.1625996  35.6676745  54.9425936  71.4767265  35.6324100
  52.8063631  71.3708210  35.4849124  52.6791000  70.6662130  36.3067555
  52.0632172  72.1632385  35.5738878  52.5699949  70.6171989  34.1400838
  52.6800966  71.2975121  33.2955980  53.5554647  69.4104719  34.0688181
  54.6128082  69.6338797  33.9266300  53.3379889  68.7903261  34.9384236
  53.2460308  68.7713814  33.2418299  51.1344481  70.0956631  34.0132308
  50.8268166  69.3155003  34.7095180  50.4436922  70.9356022  34.0871334
  51.0232830  69.5867682  33.0557513  54.2400026  73.2806158  34.5970082
  53.4776688  74.2170191  34.5861483  55.1492357  73.2441616  33.6321616
  56.3727474  72.3983765  33.5508108  56.2649584  71.3567734  33.2482529
  56.9099092  72.3616266  34.4985485  57.3316956  72.9766703  32.4947190
  57.1212721  72.4257898  31.5780139  58.3471823  72.7477694  32.8179741
  56.8612003  74.4081163  32.3593569  57.1096420  74.7668791  31.3605213
  57.3526335  74.9443293  33.1711936  55.3433132  74.2817402  32.5883555
  54.9439287  75.1907110  33.0382037  54.4101906  74.0960741  31.3270950
  54.8387480  73.6928940  30.2496982  53.1271791  74.3698215  31.5402389
  53.0043411  74.6698427  32.4967933  52.0277214  74.1518259  30.5757475
  52.1513796  73.1490898  30.1666880  50.6263113  74.2247391  31.2028241
  49.8842621  74.3601227  30.4159737  50.2610540  72.9581261  32.0416212
  51.1013079  72.2645760  32.0090914  49.9193954  73.1568480  33.0574369
  49.5068455  72.3571539  31.5335727  50.5156803  75.3835917  32.0167017
  51.1464214  76.0224295  31.6766310  52.0774746  75.0830221  29.4381928
  52.3492193  74.5421410  28.3665681  52.0594311  76.2852287  29.5905995
  91.1530399  41.6305685  33.7627816  90.6016636  42.4736023  33.8362193
  90.4975510  40.8645964  33.7017274  91.6428471  41.6435051  32.8795958
  92.1368599  41.4559317  34.8863387  92.5592232  40.4584885  34.7645950
  93.2096672  42.5498581  34.9913216  92.7329063  43.5296774  34.9638581
  93.8074017  42.4238014  35.8940554  94.2252827  42.4657869  33.8814235
  94.8354721  41.5770435  34.0423679  93.7792492  42.3601246  32.8924847
  95.1899433  43.6283016  33.6967564  94.6534920  44.5619535  33.5276079
  95.7031441  43.8040113  34.6422029  96.1297417  43.3555508  32.4841070
  96.7682743  42.4940062  32.6793528  95.4334927  43.0833006  31.6908789
  96.8856144  44.5917940  32.1564555  97.4670696  44.4850779  31.3375425
  96.3172913  45.4251385  32.1049070  97.5635338  44.7625208  32.8854060
  91.4401340  41.3946915  36.2530661  90.6520557  42.3031855  36.5066552
  91.8705559  40.4382944  37.0755291  92.6633072  39.8878741  36.7777300
  91.3162518  40.2544832  38.4301066  90.2417755  40.0712395  38.4248257
  91.9813442  39.0318871  39.0025806  93.0573845  39.1970634  38.9482236
  91.5246010  38.8248086  40.4687834  92.0377541  37.9279089  40.8156872
  91.8847084  39.6551776  41.0761642  90.4694557  38.6507630  40.6797075
  91.5946865  37.7301240  38.1843853  92.2426701  37.7183247  37.3079801
  91.8947411  36.9098330  38.8364530  90.5524254  37.5267172  37.9385877
  91.5416718  41.4590311  39.3676686  90.5567169  41.9357204  39.9885416
  92.6977062  42.0295334  39.4220591  93.4282398  41.7158842  38.7991238
  93.0366421  43.2345009  40.2430105  92.7691460  42.9986143  41.2730122
  94.5556450  43.5685062  40.0767136  94.6809864  44.4887209  40.6473207
  95.0647163  42.6547813  40.3834009  94.9491501  43.8643885  38.7045527
  95.6345272  43.2155657  38.5287929  92.2398949  44.4838333  39.7792077
  91.7120647  45.2633905  40.5960035  91.9597054  44.6493530  38.4860706
  92.3332024  43.9080620  37.9106712  90.9622192  45.5900908  37.9057312
  91.1511707  46.4977646  38.4789014  91.2113094  45.7204437  36.3465142
  91.2800026  44.7223330  35.9139037  90.4042244  46.2801266  35.8737922
  92.5055408  46.4346552  36.1226988  93.3750343  46.0508156  36.6563249
  92.8257084  46.3504076  35.0841928  92.4404621  47.9819918  36.5017462
  91.3522530  48.5678053  36.4772606  93.3937359  48.5756969  37.0970511
  89.4095898  45.3517485  38.1204844  88.6732388  46.3052940  38.4653258
  88.9134502  44.0753651  37.9966259  89.4892597  43.2892036  37.7311182
  87.6097298  43.7330198  38.4772348  86.8809891  44.3178892  37.9160166
  87.2972393  42.2247410  38.1333661  87.8746510  41.5583849  38.7741995
  86.2673664  42.0409298  38.4394360  87.3203850  41.7990541  36.6823721
  87.1600723  42.6975632  36.0864830  88.3575344  41.5066385  36.5182662
  86.4144135  40.6730795  36.1922741  86.6568947  39.5039129  36.4484501
  85.3920364  40.9423161  35.4464412  84.8000813  40.1766968  35.1574612
  85.1686287  41.9150734  35.2917242  87.4245548  44.0694427  39.9988031
  86.4772415  44.7827673  40.3597260  88.3797741  43.6837482  40.8352280
  89.1413784  43.1126642  40.4977083  88.4097290  44.1811657  42.2568083
  87.4474239  43.8252115  42.6247358  89.4856071  43.4127045  43.0544090
  90.4628181  43.4400797  42.5723124  89.7237873  43.8301134  44.0327454
  89.0638924  41.9382048  43.3485126  88.6616611  41.5181637  42.4266243
  90.2074337  40.9750271  43.6945391  91.1033726  41.2180328  43.1232786
  90.3857899  40.9929943  44.7696972  89.8923779  39.9613929  43.4467840
  88.0859184  41.9936848  44.5445824  88.4194374  42.6165295  45.3746033
  87.1521664  42.5369549  44.3993807  87.9429245  41.0185337  45.0101280
  88.3653831  45.6661701  42.5077391  87.8213882  46.0256290  43.5000706
  88.8950062  46.5438080  41.6797161  89.3148994  46.1124659  40.8687067
  88.6562729  47.9550505  41.7498493  88.7565899  48.3765984  42.7500153
  89.6040154  48.8248730  40.8982277  89.5440292  48.4344006  39.8823357
  89.1911316  49.8323345  40.9496975  91.0678673  48.7830734  41.4346170
  91.2062931  49.3038940  42.3820829  91.4967632  47.7835369  41.5058374
  91.9043159  49.4718218  40.3759384  91.6402149  49.2966938  39.3330169
  91.5377140  50.4929161  40.4811764  93.4190559  49.3390274  40.6221342
  93.5689354  49.6930456  41.6420889  93.8181305  48.3285570  40.5338812
  94.1295624  50.3166103  39.6994019  93.8370705  51.2690020  39.8652267
  95.1195049  50.2722216  39.8947072  93.9621544  50.0756741  38.7329507
  87.2804356  48.3245993  41.3827419  86.6452122  49.1232538  41.9968462
  86.7846394  47.7266169  40.3288937  87.3918819  47.1446228  39.7697473
  85.3345776  47.9020834  39.9112725  85.1973820  48.9832211  39.9317646
  85.3067112  47.2827482  38.4869909  86.2164879  47.6192379  37.9898190
  85.2449036  46.2087774  38.6626363  83.6663818  47.7687168  37.6906586
  84.1486168  48.9155579  37.2037292  84.3319702  47.3411465  40.9002113
  83.2310677  47.9094601  41.0074472  84.6637440  46.3285112  41.7365074
  85.5283451  45.8737230  41.4801025  83.8998795  45.7641363  42.8501940
  82.8854942  45.5102873  42.5425053  84.6876907  44.4906044  43.3721781
  85.7153606  44.8311996  43.4986162  84.3012428  44.2222309  44.3554020
  84.6957397  43.0679750  42.2338581  85.6397438  43.5601330  41.4266825
  83.8186264  46.7554855  44.0138626  82.7442741  47.0689774  44.4702911
  84.9205494  47.3068810  44.3925047  85.7926464  47.0517540  43.9515352
  84.9504852  48.3318472  45.3842306  84.6281433  48.0629015  46.3901472
  86.3661766  48.8902426  45.7005119  86.9982815  48.0991459  46.1038923
  86.7879581  49.3914509  44.8293114  86.2893391  49.8544359  46.7299938
  86.5054989  49.5475101  47.6135492  84.2092323  49.5868587  44.8645401
  83.5114861  50.2930164  45.6251574  84.1887188  49.8943281  43.5533524
  84.6697330  49.1816282  43.0234575  83.3302021  50.8878469  42.8028393
  83.5252285  51.9328880  43.0435753  83.4817410  50.7872105  41.7281246
  81.7591095  50.6242180  42.8399372  80.9966278  51.5328646  43.1692934
  81.3598251  49.3713140  42.7154779  82.1088505  48.7167406  42.5405502
  79.9716425  48.8215733  42.9476786  79.2352486  49.4309425  42.4237537
  79.9273539  47.3848581  42.3656082  80.7142258  46.7341423  42.7470636
  78.5805893  46.6761017  42.8294420  78.4529257  46.6368675  43.9112282
  77.7618408  47.1767664  42.3126316  78.6142254  45.6291485  42.5280142
  79.9328470  47.2687531  40.8058023  79.0608215  47.7140665  40.3268814
  80.8110332  47.8150749  40.4616785  79.9821329  45.8298302  40.3301239
  80.5223656  45.7675505  39.3854737  80.4252243  45.1964998  41.0986757
  78.9839172  45.3931141  40.2993965  79.6785307  49.0992785  44.4671822
  78.6848259  49.6975803  44.7062397  80.5380726  48.7919807  45.4605341
  81.3737106  48.3477926  45.1076698  80.4356194  49.0283966  46.9366074
  79.5582199  48.5625553  47.3852301  81.6653442  48.4694195  47.6528025
  81.9371033  47.4983120  47.2390461  82.5351810  49.1074467  47.4965811
  81.3482761  48.1709337  49.1786766  80.6684971  48.9075136  49.6070004
  80.5403328  46.8172455  49.3366909  81.2954426  46.0313511  49.3198109
  80.0576687  46.8294430  50.3139210  79.7406769  46.7292786  48.6012173
  82.5872707  48.0432796  50.0585270  82.2551060  47.8077126  51.0696030
  83.2439613  47.3229551  49.5706844  83.2201862  48.9276361  49.9848509
  80.2101421  50.5006027  47.2993279  79.2030334  50.8069897  47.9140139
  80.9958935  51.3905954  46.7892742  81.7463017  51.0559082  46.2019253
  80.8594704  52.8514719  46.9460821  80.8991241  53.1011248  48.0063677
  81.9882393  53.5781384  46.1559057  82.9131317  53.0277443  46.3283491
  81.7652321  53.7973499  45.1117229  82.1069050  54.9400473  46.8665457
  81.1926365  55.5257607  46.7708588  82.3464108  54.8490858  47.9260111
  83.2355404  55.7302380  46.2266350  83.5823250  56.5377140  46.8714809
  84.1300678  55.1117563  46.1530542  82.8928947  56.3015413  44.8519611
  82.8572273  55.5766726  44.0387011  81.9352436  56.8029022  44.9921179
  83.9052486  57.2966576  44.4093084  83.6149311  57.6073885  43.4931993
  84.0764809  58.0579758  45.0505352  84.8128510  56.9489908  44.1345310
  79.5072508  53.4371424  46.4524317  78.9405537  54.2745066  47.1814728
  78.9663219  53.1177330  45.2894783  79.3717480  52.2948790  44.8668194
  77.6241159  53.4988689  44.8290634  77.5501251  54.5490360  44.5466137
  77.4005175  52.6593494  43.5569859  77.9767227  53.0655193  42.7256536
  77.7091789  51.6357565  43.7693167  76.0363960  52.4786615  43.0872440
  76.1517525  51.7465687  42.2879696  75.4876423  52.0154715  43.9072561
  75.3908968  53.7666225  42.5435638  76.1343193  54.6861410  42.0575428
  74.1445065  53.7960386  42.3837996  76.5212345  53.2525206  45.8535671
  75.6610918  54.0914011  46.1379528  76.5618134  52.0598125  46.4320374
  77.1437073  51.3252306  46.0553455  75.5514240  51.6690111  47.4588537
  74.5925760  52.0733309  47.1344566  75.3378248  50.1800299  47.4945879
  76.2470627  49.8279333  47.9818439  74.4169044  49.9964571  48.0480337
  75.3565359  49.4860935  46.1278772  74.5615673  49.8883486  45.4999352
  76.2652016  49.7631359  45.5933952  75.1379108  47.7019978  46.2949896
  76.5917540  47.2250605  47.1714020  76.6999197  46.1406565  47.1929455
  77.4572754  47.6793766  46.6891432  76.4697790  47.4517202  48.2305765
  75.8252239  52.1881628  48.8567543  74.8584127  52.2977209  49.5523739
  77.0465374  52.7187109  49.1327333  77.8925943  52.4462795  48.6530828
  77.3249674  53.5083914  50.3637362  76.6911459  53.1590462  51.1787987
  78.7964964  53.3803892  50.7907820  79.3791676  53.0786991  49.9203968
  79.1689062  54.3648195  51.0741758  78.9653301  52.4446678  51.9314146
  79.7391510  51.2905502  51.7847300  80.2014160  51.1312580  50.8217478
  80.0294018  50.4897928  52.8923416  80.6876659  49.6389627  52.7965498
  79.6311665  50.8469534  54.1649532  79.9200296  50.1853609  54.9682331
  78.8500500  51.9914675  54.2864799  78.4558392  52.2487593  55.2584934
  78.4878778  52.7826166  53.1958055  77.9362679  53.6864233  53.4085512
  76.8734694  54.9992514  50.1814079  76.9185352  55.7798100  51.1484671
  76.5035105  55.5185318  48.9975548  76.6211271  54.9888802  48.1456518
  76.1227083  56.9004917  48.7598324  76.7349577  57.5645208  49.3700075
  76.3198948  57.2171450  47.3009539  75.4829645  56.9191074  46.6694355
  76.3797903  58.3052206  47.2763777  77.2404385  56.8366528  46.8583059
  74.6392488  57.0660400  49.1764450  73.8248873  56.0901308  49.0074444
  74.2584419  58.2731056  49.6337509  74.9740028  58.9841509  49.6836376
  72.9591084  58.7015963  50.2331352  72.9190588  58.3378553  51.2598753
  72.9979563  60.2678061  50.4474545  73.7440109  60.5278397  51.1983776
  73.2456017  60.6354332  49.4516563  71.6811848  60.9372759  50.7766819
  71.7758226  62.0222044  50.8221912  70.9561920  60.6469345  50.0162983
  71.2605095  60.5445480  52.1848774  71.4486551  59.4780970  52.3089123
  71.9299555  61.0036802  52.9123020  69.7635984  60.9918165  52.3104286
  69.6211863  62.0389748  52.0434332  69.1708422  60.3409815  51.6676569
  69.1902494  60.6687069  53.6193514  69.3827820  61.3745070  54.3156815
  68.2172728  60.4013109  53.6631250  69.7499752  59.8758030  53.8988352
  71.6729021  58.2164240  49.4585228  70.6780863  57.9798603  50.1020193
  71.6568136  58.0174685  48.1436253  72.5864029  57.8437138  47.7889729
  70.5086279  57.6522493  47.3804522  69.6692801  58.3274889  47.5467205
  70.8872557  57.7292252  45.8691835  69.9987173  57.3222828  45.3864813
  71.0805607  58.7691307  45.6058931  72.1176052  56.9476891  45.2834654
  73.0305529  57.4961710  45.5154181  72.3378420  56.0660934  45.8854485
  72.0734024  56.4222574  43.8598919  73.0193567  55.9615898  43.5751915
  71.2453985  55.7158279  43.8008356  71.8191242  57.5558472  42.8732729
  70.7668066  57.8214264  42.9742050  72.4845648  58.3939028  43.0805111
  72.1038294  57.2084808  41.4623833  73.0839968  56.9966173  41.3420296
  71.4140892  56.5543318  41.1211300  71.8406582  58.0132914  40.9118176
  70.0037289  56.2021637  47.7349520  68.7780523  56.0695410  47.8598785
  70.8735418  55.1709175  47.9714155  71.8476868  55.3397703  47.7649498
  70.4595041  53.8090897  48.3648682  69.5165539  53.5827732  47.8671360
  71.5458727  52.8279686  47.8750706  72.5410557  53.1693459  48.1599903
  71.3168240  51.8890476  48.3791256  71.5857029  52.7329063  46.3909864
  70.7086658  52.1001482  45.5340815  71.1048460  52.2376299  44.2838287
  70.7455015  51.7896175  43.3691931  72.3332930  52.7592611  44.3181086
  72.9515266  52.9260015  43.5370255  72.6201534  53.2023335  45.6042051
  73.3753109  53.8799858  45.9742403  70.2990437  53.7530804  49.8771667
  69.6066809  52.8273249  50.4106760  70.8708572  54.6872759  50.6224489
  71.3327503  55.4692650  50.1805830  70.9495640  54.7489786  52.0693731
  71.5142632  53.9509249  52.5513744  71.6625118  56.0731697  52.4785852
  72.5989580  56.2805653  51.9607401  70.9818220  56.8798685  52.2065639
  71.8846607  55.9634829  53.5400534  69.5977211  54.6178627  52.7407408
  69.5061398  53.9148283  53.7171793  68.5241938  55.0366259  52.0816517
  68.6674070  55.3695679  51.1389208  67.1757269  54.9359560  52.5037909
  67.0852661  55.6778574  53.2972050  66.2493038  55.3038025  51.3381052
  66.3586235  56.3442659  51.0321712  66.5107059  54.7008085  50.4685211
  65.2459383  55.1060390  51.7152548  66.7777967  53.4957933  52.9650593
  66.1805582  53.3742905  54.0442657  67.2387171  52.5112724  52.1786165
  67.6764870  52.7620077  51.3036394  66.9431305  51.1109781  52.4008083
  66.3363838  50.9102869  53.2838011  66.3189507  50.5115128  51.1645412
  66.4342976  49.4278097  51.1449862  65.2639198  50.7853556  51.1597729
  66.9085264  51.0008860  49.8592806  67.8345776  50.2770472  49.1348934
  68.2556868  49.4252920  49.6482944  68.2403231  50.6679487  47.8341103
  68.9522362  50.1280594  47.2274017  67.6848459  51.7954159  47.2338200
  68.0495262  52.1587372  45.9646511  69.0087414  52.1638870  45.9261751
  66.7228794  52.5342512  47.9465103  66.2414265  53.3728504  47.4655199
  66.3720131  52.1591377  49.2930984  65.6936359  52.7589893  49.8816395
  68.2688951  50.3425646  52.8331375  68.1306362  49.2371464  53.2654190
  69.4657135  50.8693409  52.6499939  69.5420504  51.7260265  52.1204996
  70.7423639  50.1319790  52.7589035  70.6499195  49.0556097  52.6140356
  71.7335939  50.6919003  51.7298889  72.0655298  51.7036629  51.9628429
  72.7131367  50.2149487  51.6965246  71.2494421  50.7787800  50.7571840
  71.3903761  50.2907038  54.2049170  72.2862387  49.6344185  54.5617008
  70.8449268  51.1090231  55.0989866  70.0128365  51.6274691  54.8562098
  71.2608194  51.3007450  56.5057468  72.2741795  51.6989899  56.4546919
  70.5019283  52.5303364  57.1560860  70.9567118  52.7842712  58.1135750
  70.5783987  53.3632898  56.4571905  69.0473223  52.0767498  57.3105955
  68.1163692  52.1412325  56.3998699  68.3295822  52.6470089  55.4697418
  66.8659544  51.5612030  56.8465376  66.0096741  51.4042807  56.3344288
  67.0780993  51.0535097  58.0841923  66.2347126  50.4016733  58.9569378
  65.2114058  50.2576208  58.6430979  66.6869402  50.0804090  60.2179527
  65.9802341  49.7018671  60.9416103  68.0623293  50.2597237  60.5261707
  68.4256983  50.0392151  61.5190172  68.9019585  50.9484816  59.6272945
  69.9635935  51.0789108  59.7766924  68.4195185  51.3687992  58.3927107
  71.4460945  50.0504208  57.4798203  72.3470306  50.0707579  58.3341503
  70.7501459  48.9567852  57.2547102  69.5126677  48.7257195  56.5459251
  69.6393347  48.5784340  55.4733753  68.8564253  49.5913410  56.6361904
  68.7137794  47.5556564  57.0707035  68.6044693  46.7039871  56.3992834
  67.7568579  47.9507685  57.4117374  69.4297934  47.1691275  58.3478403
  69.3861198  46.0852337  58.4544468  69.0658855  47.7408838  59.2015219
  70.8655167  47.7646875  58.1278229  71.2309027  48.1366968  59.0850067
  71.8123579  46.8247652  57.4735308  71.9126272  45.6631279  57.9170513
  72.6002455  47.2352314  56.4130497  72.4055910  48.1550026  56.0439587
  73.6049795  46.4777517  55.7275152  73.7588978  45.5303001  56.2439871
  73.1544352  46.1446810  54.3001556  73.1437016  47.0131969  53.6416197
  73.8424301  45.4661751  53.7957764  71.7289925  45.4175901  54.2240334
  71.5122986  44.2366457  54.9700594  72.4011374  43.7876606  55.3881216
  70.2297449  43.6768770  55.1748466  69.9998665  42.7923298  55.7502890
  69.1404104  44.3623400  54.5878553  68.1155729  44.0875387  54.7893381
  69.3192196  45.4751778  53.7717152  68.4658432  45.9406757  53.3011150
  70.5743885  46.0099936  53.5972786  70.6878614  46.8418217  52.9178762
  74.9665165  47.2215414  55.8050966  76.0635853  46.6109467  55.8386803
  75.0276136  48.5888672  55.9265852  74.1248369  49.0361738  55.8558321
  76.2095451  49.4976616  56.0293913  76.6952610  49.4223118  55.0565100
  75.5880690  50.8883333  56.2271070  74.7095585  50.7704592  56.8614721
  76.3094997  51.5829134  56.6574574  75.0886488  51.6137838  55.0375795
  74.8569536  53.0015087  55.1768780  74.8024654  53.4873199  56.1399031
  74.5044327  53.7698793  54.0672541  74.3824291  54.8409986  54.1321754
  74.3727636  53.1727362  52.7836847  74.1759109  53.9022875  51.6097260
  74.2699194  53.2954979  50.8717775  74.5476866  51.7912483  52.6844645
  74.5088291  51.3801527  51.6865206  74.9417734  51.0150814  53.7552214
  75.1775026  49.9698973  53.6194801  77.2385359  49.0824986  57.1045446
  78.4107494  49.3021679  56.8806553  76.7892265  48.5798502  58.2505512
  75.8093691  48.3821487  58.3951044  77.6477242  48.2930136  59.4349384
  78.6994982  48.2772493  59.1492414  77.5014448  49.4718504  60.3714323
  76.4495564  49.4570971  60.6567717  78.1246138  49.2164660  61.2284851
  77.9540586  50.8702612  59.7673464  78.9147997  50.8273029  59.2542791
  77.2007561  51.1928415  59.0486097  78.0558634  51.9751883  60.8463430
  78.9648390  51.8170309  61.4267302  78.1731606  52.9620600  60.3986597
  76.8822527  51.9385099  61.8329430  75.9360123  51.8663645  61.2967300
  76.9066954  50.9901333  62.3696852  77.0945168  52.9991770  62.7948618
  76.8020868  53.8832521  62.4037170  76.6682625  52.8118563  63.6911440
  78.0653477  53.2473135  62.9214048  77.2244120  46.9835234  60.2150965
  76.1617899  46.4564371  59.8246384  78.0296659  46.3153887  61.1074305
  79.3299055  46.7972994  61.5917206  79.2381334  47.8041649  61.9990301
  80.0883579  46.6313505  60.8266640  79.6527100  45.9377146  62.7843714
  79.2508125  46.3553286  63.7075043  80.7189941  45.7647085  62.9299974
  78.8811970  44.6326590  62.4684143  78.7280989  44.0072489  63.3479166
  79.5275879  44.0248919  61.8352461  77.6692486  45.0200319  61.6039991
  77.4901867  44.2495823  60.8540297  76.4446592  45.1405954  62.4661875
  76.1111689  46.1099625  63.1089973  75.8004045  43.9614534  62.6544523
  76.1735296  43.1455326  62.1906137  74.5959949  43.7385702  63.5836887
  74.0250206  44.6667719  63.5606480  73.8196993  42.5363827  63.0953503
  74.4172335  41.6304159  63.1967449  72.4551487  42.2365236  63.8796377
  71.8871212  43.1628418  63.9655495  71.9288349  41.4222717  63.3815479
  72.5869894  41.8540192  64.8917675  73.3463049  42.7368355  61.6110754
  74.1910505  42.7485228  60.9223270  72.6345158  41.9942522  61.2504959
  72.7912092  43.6747789  61.5956306  75.0311899  43.5429001  64.9737310
  75.5029345  42.4617243  65.3429413  74.9261570  44.6561289  65.7829952
  74.6825695  45.5173111  65.3148794  75.3932047  44.8008204  67.1066046
  76.3031006  44.2120457  67.2229481  75.6943417  46.2809229  67.5227737
  76.2575960  46.8362045  66.7727709  74.7636318  46.8347168  67.6460361
  76.5002584  46.4078760  68.8435793  76.7336178  47.6348114  69.2334700
  76.9574404  45.4437494  69.4693899  74.4334316  44.1325140  68.1641960
  73.4448338  44.6960592  68.6377716  74.5688343  42.8124714  68.3338308
  75.3734112  42.3905182  67.8925657  73.5569286  41.9034100  69.0177155
  72.6160383  42.0734453  68.4943438  73.7308884  40.3544140  68.9442253
  72.8659201  39.9062133  69.4331551  73.6193562  40.0297308  67.4954987
  72.6437712  40.2949715  67.0880842  74.3367338  40.6797838  66.9945908
  73.8208771  38.9748955  67.3089314  75.0338697  39.7387624  69.4704199
  74.7813129  38.6875176  69.6089935  75.7954836  39.8382807  68.6970282
  75.4223299  40.1368713  70.4078197  73.3325577  42.2376394  70.5060863
  72.1798992  42.2371578  70.9927177  74.3573046  42.5817490  71.2714148
  75.2932882  42.5897551  70.8919716  74.3253803  43.0001736  72.6718712
  73.8934565  42.1723461  73.2342291  75.7586861  43.2769680  73.2072258
  76.4134693  42.4344063  72.9848480  76.0365343  44.2273855  72.7515793
  75.7863808  43.5339355  74.7902966  76.8091726  43.7736988  75.0810003
  75.1881218  44.3972063  75.0817585  75.3410387  42.2125244  75.5463600
  74.5008802  42.3682737  76.4124393  75.8388853  41.0490704  75.3675985
  73.3908224  44.2748737  72.8842068  72.5715065  44.2933464  73.8302374
  73.5615301  45.2742004  71.9831610  74.0256214  45.1346827  71.0970068
  72.9051304  46.5702486  72.1075964  72.7999544  46.7056751  73.1840277
  73.8295460  47.5452900  71.4987707  74.8558664  47.3798704  71.8264961
  73.9028692  47.5158978  70.4116344  73.5948801  48.4817457  72.0048189
  71.4764500  46.6131639  71.5194273  70.7421637  47.5748205  71.6006231
  71.0264635  45.4988241  71.0217619  71.6531897  44.7162867  70.8995056
  69.7160244  45.1654339  70.6320381  69.0317345  45.9872389  70.8429527
  69.7199535  44.9690866  69.1334152  70.4597425  44.1836405  68.9788675
  68.8291883  44.4320726  68.8074446  69.9392176  46.1307144  68.2113647
  70.9711027  46.4772511  68.2681465  69.8064804  45.6024551  66.7322397
  70.7668734  45.1751947  66.4437866  68.9929390  44.8872852  66.6106606
  69.6424198  46.3624096  65.9682703  68.9812660  47.2593403  68.4863281
  69.1434145  47.9827070  67.6872396  67.9361391  46.9741583  68.3659840
  69.0828323  47.5818157  69.5225716  69.1422176  43.9639425  71.4750862
  67.9661989  43.7933588  71.3837194  69.8650742  43.2156658  72.3436308
  70.8662462  43.3479977  72.3591280  69.2554188  42.1422005  73.1051826
  70.0688362  41.7863703  73.7375116  68.4308767  42.5384092  73.6978531
  68.8516998  40.9672737  72.2010899  67.7661514  40.3670263  72.3563814
  69.8283720  40.6215811  71.3182640  70.6985712  41.1342382  71.3118315
  69.6260595  39.5572495  70.3265429  68.6034155  39.1934991  70.2266312
  69.7390127  40.1976633  68.9167690  70.7640362  40.5584860  68.8317060
  69.7175455  39.3733525  68.2039213  68.8114643  41.3420963  68.4743357
  68.9053869  42.1588802  69.1899776  69.2422771  41.8274069  67.0810556
  68.6677694  42.7168417  66.8223190  70.2552748  42.2293901  67.0624781
  69.1691351  41.0232019  66.3489342  67.3836803  40.9104729  68.4287548
  66.7489624  41.7200518  68.0684566  67.1614218  40.0334835  67.8208065
  67.0941925  40.8678198  69.4787455  70.4648542  38.3224893  70.6603813
  71.2032700  37.8060961  69.8178673  70.4586267  37.8219366  71.8670321
  69.7561789  38.0859327  72.5430346  71.3541412  36.7676854  72.2890282
  72.3886108  37.0333838  72.0713472  71.5144634  36.7665005  73.8273573
  70.5649900  36.4086008  74.2254972  72.2696400  36.0036087  74.0165758
  71.9547796  38.0946350  74.3654680  71.2194490  39.2674327  74.4804478
  72.0830488  40.1601887  75.0824261  71.9464684  41.2194014  75.2431345
  73.3037090  39.6047735  75.2263832  74.1051388  40.0701666  75.6279087
  73.2603168  38.3405614  74.7064734  73.9842844  37.5408387  74.7586107
  71.2445498  35.3296375  71.6127062  72.0040703  34.3476748  71.9239426
  70.2275801  35.1747584  70.7954168  69.6353340  35.9675741  70.5934525
  70.0407124  33.8718891  69.9841166  70.4544163  33.0621052  70.5851173
  68.5121250  33.6677670  69.9118614  68.3374596  32.6102114  69.7139549
  68.2076740  33.8491488  70.9426451  67.7280760  34.5313454  68.9074564
  68.1760120  35.6705308  68.5837173  66.5351915  34.1959715  68.5788393
  70.7067108  33.9599037  68.5707903  70.8721304  32.9124331  67.8794193
  71.2488937  35.1319814  68.2064056  71.0187387  35.9758425  68.7114096
  71.8147087  35.2894020  66.8170452  71.0552216  35.0684810  66.0670614
  72.1930647  36.7750597  66.6608381  71.4312696  37.4296331  67.0842743
  73.0652237  37.0379066  67.2594643  72.3883343  37.2529984  65.2605534
  71.3421965  37.6136303  64.3830204  70.3001595  37.5135970  64.6486330
  71.5998030  38.1967688  63.1135607  70.8210707  38.5409379  62.4490881
  72.9191589  38.2822204  62.7036667  73.1778193  38.9085340  61.4896297
  72.3632860  39.0616059  61.0051584  73.9596605  37.8204966  63.4870672
  74.9724960  37.8033733  63.1125355  73.6892748  37.3457766  64.7570133
  74.4977808  36.9915128  65.3792763  72.9291344  34.3133783  66.5073919
  72.8751373  33.5392904  65.5590773  73.8397551  34.1704273  67.4603605
  73.8344288  34.8552370  68.2027292  75.0852442  33.3396530  67.2625923
  75.3707314  33.5891604  66.2406540  76.1922169  33.7312889  68.2317257
  75.8857775  33.2320237  69.1509342  77.0519257  33.2809830  67.7355194
  76.2939405  35.4791594  68.3117676  75.4959202  35.5597878  69.3802071
  74.7534227  31.7926621  67.2699833  75.5296326  31.0212016  66.7789602
  73.5721159  31.3351512  67.7747583  73.0879736  32.0825005  68.2513905
  72.9921150  29.9877071  67.6505804  73.7507534  29.3374038  68.0860901
  71.7163515  29.7070169  68.4131956  70.9216547  30.2923346  67.9506397
  71.4193249  28.6668372  68.2794046  71.9375229  29.9213815  69.8961639
  70.8944130  29.8640752  70.5719757  73.0374765  29.9174738  70.4722404
  72.7180862  29.7115636  66.1675835  72.9820442  28.6662054  65.7008743
  72.2905254  30.7089972  65.3652763  72.0753145  31.4984226  65.9573889
  71.7696714  30.5593944  63.9856768  71.4566088  29.5285892  63.8197279
  70.4212618  31.2604570  63.8947487  70.6270266  32.2984266  64.1562414
  70.0102377  31.1767817  62.4031496  70.6683493  31.6393113  61.6675854
  70.0425196  30.1107788  62.1779776  69.0021038  31.5870929  62.3447609
  69.3923378  30.6696343  64.8378563  68.8004875  29.8671794  64.3975401
  69.8696661  30.1695633  65.6805849  68.3061361  31.6234541  65.3545332
  67.6970816  31.8997574  64.4938278  67.7422380  31.1480236  66.1570835
  68.8546991  32.4538827  65.7990170  72.8728390  31.0882306  62.9500103
  73.0720997  30.4988027  61.8863392  73.4741402  32.2412443  63.2005405
  73.3191872  32.5538611  64.1483593  74.3577480  32.9810929  62.2623634
  74.2848587  32.5382781  61.2690353  74.0027380  34.4679451  62.1152210
  74.0455246  34.8634791  63.1300259  74.9995327  35.2016401  61.1670589
  74.6356630  36.1806154  60.8551073  75.9800053  35.3511477  61.6191912
  75.1939631  34.5280790  60.3324270  72.6081276  34.7155046  61.5043354
  71.7671299  34.2578554  62.0252800  72.4799585  35.7972813  61.4665127
  72.3699331  34.1293955  60.0808144  72.8436041  34.8169732  59.3801212
  72.8772163  33.1732249  59.9523401  71.3173342  34.0561724  59.8073673
  75.8044624  32.7204156  62.7030277  76.4229012  33.2785034  63.6319828
  76.3706112  31.6460013  62.0812988  75.9307671  31.2064552  61.2854099
  77.6933670  31.1245799  62.3678112  77.8651762  31.3403177  63.4223413
  77.8442192  29.5928907  62.1931982  78.1617832  29.4162536  61.1655521
  78.6550713  29.2811227  62.8515434  76.6391373  28.6810732  62.4828529
  76.1117029  28.8663292  63.4185839  75.7900333  28.9409876  61.8507433
  77.1234131  27.1930814  62.4711943  77.6410770  27.0062423  61.5303326
  77.8179932  27.0062709  63.2901955  75.9557009  26.2012315  62.5444460
  76.2603140  25.1548529  62.5645924  75.2366304  26.4596033  63.3218050
  75.2259302  26.2493992  61.2718010  74.4225311  25.6403184  61.2111902
  74.8329353  27.1669245  61.1175156  75.8097029  25.9655428  60.4980183
  78.8286591  31.8360806  61.6133738  79.9277735  31.7694449  62.1121788
  78.5410452  32.5828981  60.5253458  77.5454950  32.6264071  60.3607607
  79.3521118  33.3338475  59.5840216  80.3853321  33.5164309  59.8793602
  79.5653296  32.5900960  58.2342958  78.7360525  32.2050619  57.6408768
  80.1125336  33.1215858  57.4557209  80.4678249  31.3425994  58.5336161
  79.9332428  30.0705099  58.8229036  80.9930515  29.2041159  58.8869619
  80.8688736  28.1725478  59.1816711  82.1285057  29.8721337  58.5768843
  83.0698490  29.5354962  58.7206030  81.7915249  31.1869478  58.4091949
  82.4794292  31.9498277  58.0757380  78.6526585  34.6781421  59.2590809
  77.9786301  34.8417974  58.2479334  79.0071440  35.7346487  60.0570869
  79.7801828  35.6413078  61.3004637  80.8482933  35.5064535  61.1299896
  79.2833042  34.8397231  61.8469715  79.5860624  36.9742560  61.9487095
  80.3618526  37.6371598  61.5655518  79.6356773  36.7109513  63.0052662
  78.2203150  37.4867463  61.4185858  78.2388878  38.5642481  61.5821266
  77.3917437  37.0713758  61.9922018  78.3346176  37.0218539  59.9141169
  77.3055983  36.9816852  59.5568991  79.1265488  38.0061078  59.0938950
  80.3582954  37.8756547  58.9330101  78.5048962  39.0603566  58.4889984
  77.5274801  39.2401886  58.6690331  79.0272856  39.7601795  57.2765207
  80.0540447  40.0611067  57.4846315  79.2524624  38.8489342  56.0843897
  79.8393488  37.9810023  56.3849878  78.3137178  38.4426999  55.7077932
  79.9113941  39.6511936  54.9907541  80.0418949  38.8729715  54.2387962
  79.3675852  40.4515743  54.4889975  81.5742970  40.2860832  55.3094387
  82.3543358  38.6285472  55.4875088  81.8414783  37.9090667  56.1258078
  82.3994446  38.1798768  54.4951534  83.3940887  38.7162566  55.8026505
  78.3173084  41.1134338  57.0158625  77.0581245  41.0679770  57.1012163
  79.0051174  42.2369289  56.8501091  80.0104713  42.1424675  56.8710947
  78.4693003  43.5639000  56.8051958  77.4281645  43.4617853  56.4990807
  78.5204554  44.1876745  58.1631994  78.2608700  45.2459431  58.1350851
  77.7167654  43.8203716  58.8013840  79.9020386  44.0938997  58.7746525
  80.2927971  43.0418730  59.3113613  80.6471825  45.0387192  58.5245848
  79.1997385  44.4219398  55.6868315  80.3704166  44.1191006  55.3605509
  78.6699867  45.4870605  55.1109266  77.8362989  45.8853006  55.5189323
  79.3100357  46.2054110  54.0347576  79.6539593  45.5328751  53.2489395
  78.4540796  47.2974205  53.4213972  78.0867720  48.0496931  54.1194439
  79.0959549  47.8415442  52.7285576  77.2415829  46.7375422  52.6260424
  77.4832439  46.0383129  51.8255568  76.6033077  46.2214470  53.3432245
  76.2199497  47.9656410  51.8216085  77.4289513  49.0007257  50.9226894
  76.9228983  49.7794724  50.3521013  78.1453371  49.4459629  51.6130924
  77.9114008  48.3494616  50.1938534  80.6175137  46.8774843  54.5197439
  81.5745926  46.7923212  53.7872696  80.6531429  47.4289751  55.7332373
  79.7825813  47.3043728  56.2299252  81.9137573  48.0005836  56.3458538
  82.2597313  48.8287878  55.7274103  81.6473103  48.6066151  57.6892233
  81.1053944  47.8083611  58.1963873  82.5820732  48.8803959  58.1784821
  80.8860779  49.8474312  57.6287460  80.0002861  49.6410513  57.3215294
  83.0472851  46.9998598  56.4166880  84.2547035  47.3571587  56.2981701
  82.7875328  45.7035732  56.6310740  81.8286991  45.3956747  56.7081642
  83.7962437  44.6670055  56.6906881  84.6316814  45.0442505  57.2804642
  83.1727600  43.4004831  57.3424816  82.2634220  43.0355072  56.8649864
  84.2121887  42.2813845  57.3532867  84.3838787  41.8924618  56.3496065
  85.0622177  42.7045155  57.8885412  83.8073540  41.4961243  57.9917049
  82.9858589  43.7303543  58.7108040  82.0293140  43.8092756  58.7306070
  84.2673206  44.2578411  55.3052902  85.4640484  44.0677214  55.0899792
  83.2920074  44.0824223  54.3708515  82.3221207  44.2700863  54.5810938
  83.7119007  43.9213419  53.0381870  84.3782330  43.0675411  52.9152203
  82.4380112  43.7654400  52.2344875  81.8821335  44.6974468  52.3368073
  82.9182720  43.5257053  50.7995224  82.0693398  43.3579016  50.1367664
  83.5466194  44.3815613  50.5529451  83.5336590  42.6300621  50.7145357
  81.5766621  42.5169706  52.6784420  82.0384979  41.5461493  52.4986792
  81.3838100  42.6190805  53.7463760  80.1402569  42.5939083  52.0574331
  79.9999666  43.5883045  51.6336441  80.1302814  41.7742538  51.3389826
  79.3823528  42.4085045  52.8185511  84.5182705  45.2132320  52.6451540
  85.5786991  45.0681305  52.0541668  84.1248608  46.4283609  53.0104589
  83.1815910  46.5230560  53.3588362  84.8386002  47.7006102  52.6313448
  84.8815918  47.7678108  51.5442705  84.0686035  48.8746548  53.1391478
  83.0344009  48.9255333  52.7986383  84.0026093  48.7613964  54.2212439
  84.6911049  50.2388668  52.8536940  85.7545853  50.2680349  53.0908871
  84.7453594  50.3625011  51.7720842  83.9031315  51.4449310  53.3749962
  82.8820229  51.3921976  52.9972935  83.8784027  51.3350964  54.4591665
  84.5819187  52.7608156  52.9872465  85.6488609  52.6598454  53.1861353
  84.3788242  53.0183363  51.9477558  84.0552998  53.8648605  53.7718248
  83.8441753  53.5496378  54.7078609  84.7131157  54.6289539  53.8313150
  83.1318188  54.1643381  53.4932423  86.2996674  47.6231861  53.0408335
  87.1603966  47.8706598  52.2351933  86.5015221  47.2399044  54.2901325
  85.7228279  47.2383690  54.9333572  87.8267670  47.0138502  54.8965359
  88.4607029  47.8993511  54.9424887  87.6276970  46.5985346  56.3333416
  86.7543030  45.9464216  56.3398886  88.5043907  46.0200739  56.6246891
  87.4232006  47.6865435  57.2024393  86.5059948  47.6677942  57.4852753
  88.5596657  45.8575487  54.1945410  89.7105598  46.0095263  53.8445234
  87.9731655  44.6960258  53.9017963  87.0468521  44.4817305  54.2425537
  88.6674881  43.6063194  53.2485676  89.5280743  43.4884453  53.9070415
  87.7002239  42.4188805  53.1914997  86.7441654  42.8665447  52.9201221
  87.9371738  41.6769409  52.4289513  87.6430035  41.6226912  54.5255470
  88.7078762  41.4272308  54.6518373  87.4717999  42.3344278  55.3331423
  86.7917252  40.3540659  54.5531178  86.7504120  39.8892450  55.5381727
  85.7867622  40.6647491  54.2674255  87.1214390  39.2817307  53.5912752
  86.9251156  39.6045637  52.5688601  88.1946373  39.1292000  53.7056828
  86.2915421  38.1361818  53.8207150  85.3186893  38.3452749  53.6476517
  86.5630150  37.4275208  53.1542349  86.3119221  37.8757930  54.7963667
  89.2095375  43.9975023  51.8763542  90.2343369  43.4537506  51.4280939
  88.5755348  44.9178314  51.0985374  87.6714516  45.2706766  51.3782549
  89.1294003  45.3909349  49.8464584  89.4182682  44.4978523  49.2923307
  88.0140972  46.1587477  49.2045259  87.6712227  46.7798042  50.0320721
  88.4795856  46.7325926  48.4032011  86.9386768  45.2684975  48.6848974
  86.7722702  44.4476414  49.3824673  85.6456661  46.1082983  48.6042166
  85.7523823  47.1129322  48.1950378  84.9336910  45.4932117  48.0538988
  85.2558517  46.1349249  49.6217775  87.3251629  44.7293472  47.3254538
  87.5904274  45.4882574  46.5893888  88.0641556  43.9357328  47.4357176
  86.4522076  44.1885900  46.9598913  90.2750492  46.3461113  50.0078869
  91.2142181  46.2602568  49.2603445  90.3071690  47.3352623  50.9358358
  89.4163513  47.5596857  51.3555717  91.4876270  48.1217861  51.3656044
  91.8865490  48.7895393  50.6020117  91.0027599  49.1121578  52.4045992
  90.3139782  49.7849846  51.8937302  90.4204082  48.6441660  53.1982946
  92.1134758  50.0577784  52.9668283  92.0696545  50.1703262  54.0501165
  93.0808830  49.5780516  52.8182125  92.1965027  51.4427233  52.2969484
  91.2747097  52.2440052  52.5263453  93.2074547  51.6606045  51.6301918
  92.6477242  47.2423553  51.9528389  93.7888336  47.4623156  51.5145063
  92.3241425  46.2105656  52.7109861  91.3639450  46.0253429  52.9635906
  93.2806969  45.2050161  53.2233524  94.1990280  45.6705856  53.5811520
  92.6893044  44.6673775  54.6152544  91.8117523  44.0222025  54.5733547
  93.4579849  44.0342522  55.0584126  92.4024582  45.5124712  55.2410650
  93.5951233  44.0099859  52.2924471  94.3415451  43.1430769  52.6117325
  92.9699898  43.9939499  51.1012268  92.2269344  44.6720934  51.0112619
  93.2348156  43.1437683  49.9912024  92.3963737  43.3318853  49.3205929
  94.5913887  43.5839653  49.3293238  94.8349476  44.6101141  49.6046352
  95.4466343  42.9812670  49.6349525  94.5938969  43.4007978  47.7947950
  94.6626854  42.3406649  47.5509119  93.6302853  43.7963820  47.4737501
  95.7568836  44.1782761  47.0803165  95.9416676  45.2102423  47.3786402
  96.6925812  43.6386204  47.2263908  95.5578804  44.2517567  45.6325006
  94.6130562  44.4233751  45.3194952  96.4847851  43.9425755  44.7079992
  97.7071190  43.7884474  44.8883200  98.0930996  43.7969255  45.8216190
  98.2500076  43.6356354  44.0504551  96.0712910  43.8150692  43.5187244
  95.0830841  43.8115406  43.3101130  96.6957760  43.5497046  42.7705860
  93.0491352  41.6732693  50.1837397  93.8178253  40.8649254  49.6985006
  91.9793320  41.3537836  50.9099007  91.3875103  42.1250343  51.1838007
  91.6471481  40.0471592  51.4222240  92.5864887  39.5732164  51.7070341
  90.7802773  40.1059103  52.6971149  91.2652874  40.8042669  53.3791447
  89.8042583  40.5691338  52.5524807  90.6529427  38.7193418  53.4007740
  90.0073528  38.7922907  54.2759800  90.1543427  38.1009912  52.6543617
  92.0322132  38.0732226  53.6797047  93.0489922  38.7734723  53.8898897
  92.0869255  36.8150520  53.6894083  91.1176395  39.0355611  50.3883600
  91.4563656  37.8338885  50.4467344  90.3775120  39.6273732  49.3886757
  90.2785206  40.6325006  49.3837690  89.8945141  38.9522529  48.1451607
  89.4620132  37.9859924  48.4047461  88.7613678  39.7641826  47.4828005
  89.0902805  40.7326174  47.1058989  88.2980537  39.1296315  46.7272949
  87.6013470  39.9559665  48.4806728  86.8590736  38.8052917  48.9421415
  87.0355129  37.7803159  48.6511183  85.9570026  39.0122652  49.9736643
  85.3896332  38.1896186  50.3832245  85.7328796  40.2726889  50.4367399
  85.0250435  40.4787350  51.5819836  84.6151161  39.6521354  51.8471146
  86.4476013  41.4574957  49.9443007  86.3132858  42.3477936  50.5407286
  87.3658466  41.2419939  48.9419413  87.9584980  42.0654535  48.5717010
  91.0330868  38.6664128  47.1661091  91.7389107  39.6061015  46.7642927
  91.1239624  37.4487472  46.6399384  90.5294895  36.6880560  46.9366789
  91.8904114  37.0982575  45.4385090  92.7125263  37.8065395  45.3357029
  92.5420856  35.7103324  45.5351591  93.2098675  35.4722905  44.7072124
  93.1614208  35.6759787  46.4314508  91.5536785  34.6094203  45.4245424
  90.7653809  34.8142934  46.1489201  91.1356544  34.5695519  44.4186783
  92.1352482  33.2148910  45.6125212  92.9091644  32.9517007  44.8914909
  92.6399136  33.2237911  46.5786171  90.9837246  32.2619939  45.6422329
  90.0424290  32.6264524  45.6071138  91.0570908  30.9919214  45.5897999
  92.1834087  30.3540516  45.6206131  93.0333710  30.8950949  45.5502415
  92.3196602  29.3570828  45.7077122  89.9456215  30.3451943  45.5277872
  89.1807747  30.9930539  45.4037189  90.0582314  29.3641305  45.3158092
  91.0276890  37.2401977  44.1086197  91.5810108  37.4726105  43.0467749
  89.7643089  37.0447779  44.1995239  89.4439125  36.9258571  45.1499510
  88.9009666  36.8725681  42.9763412  89.3523884  37.3346877  42.0984030
  88.8167286  35.4035449  42.5532103  89.7844601  35.1376677  42.1278858
  88.5230064  34.8371649  43.4369755  87.8160191  35.1493287  41.4348984
  87.6957130  33.9028525  41.1559200  87.3189163  36.0561752  40.7227564
  87.5784397  37.6758814  43.2490587  86.9367123  37.6146960  44.2898273
  87.2106171  38.3818626  42.2195578  87.6379395  38.2779646  41.3103247
  85.9015369  39.1063428  42.1220684  85.8775234  39.8668098  42.9025936
  85.7041454  39.8088312  40.7684088  85.7137489  39.0255308  40.0104904
  84.8167896  40.4416656  40.7536936  86.5832520  40.4385853  40.6317663
  84.6672440  38.2221413  42.4237633  83.8033104  38.6236000  43.2233000
  84.7755241  36.9379091  42.0061493  85.5696869  36.7515635  41.4105940
  83.8321495  35.8951879  42.5095654  82.8648853  36.3520861  42.3003769
  84.1450119  34.5170879  41.7396259  85.1950932  34.2632961  41.8846321
  83.4734917  33.7465286  42.1182966  84.0120029  34.6974730  40.2057314
  84.7066689  35.3663659  39.6976781  84.2615223  33.7421322  39.7440338
  82.6403141  35.0728965  39.6227145  81.6106415  34.4193745  39.8298836
  82.4682140  36.0840321  38.7973142  81.5660381  36.1351109  38.3461165
  83.1284046  36.8189979  38.5873914  83.7235737  35.6553388  44.0340519
  82.7128696  35.3690505  44.5350075  84.8282433  35.7123280  44.7282791
  85.6317997  36.1034632  44.2577410  85.0311852  35.7308197  46.2561941
  84.3065834  35.0147581  46.6439009  86.4471245  35.2511430  46.6427851
  87.2372437  35.6933522  46.0359383  86.6949558  35.5740714  47.6539278
  86.4776516  33.6961365  46.5335369  85.9468937  33.3060765  47.4020100
  85.8702850  33.4612250  45.6594563  87.9071331  33.1546593  46.3430262
  88.8034439  33.1894875  47.2596455  88.2168865  32.5808883  45.3066254
  84.5177746  37.0005155  46.9099236  83.7067223  36.8500352  47.8197384
  84.8480034  38.2257843  46.4112663  85.5919361  38.2594776  45.7289648
  84.2639446  39.4850373  46.8144178  84.5654869  39.5616579  47.8590727
  84.8121738  40.7348299  46.0996723  85.7908058  40.9896994  46.5064049
  85.0808430  40.4716253  45.0766182  83.8609314  41.8777704  46.0456085
  83.0063725  41.9985580  44.9538803  82.8992271  41.2004852  44.2341614
  82.0366573  43.0529022  44.9680471  81.4296341  43.1588459  44.0810823
  82.0166969  44.0195513  45.9590769  81.2645245  44.7921658  45.8981180
  82.9055405  43.8868618  47.0621204  82.8098392  44.5268440  47.9267979
  83.7605095  42.7739382  47.1349096  84.4406796  42.6820374  47.9687691
  82.6944733  39.3550134  46.7178011  82.0120525  39.6033454  47.7134132
  82.1947670  38.9284468  45.6206894  82.8123665  38.7846541  44.8345613
  80.7098961  38.8761163  45.4672861  80.2555561  39.8290849  45.7384491
  80.4714775  38.7923193  44.4069862  80.1162720  37.7066922  46.2865782
  78.9099884  37.8759623  46.6586733  80.7924652  36.6916633  46.7602491
  81.7888546  36.7026854  46.5953732  80.2947903  35.7109308  47.6652527
  79.3220997  35.3800941  47.3012114  81.1857319  34.4507122  47.5827551
  82.1567249  34.5053434  48.0749750  80.6219006  33.6342740  48.0340052
  81.3517952  34.2279243  46.5287685  80.0988293  36.2218904  49.1190910
  79.2242765  35.7208037  49.7742510  80.9557343  37.1369505  49.5567703
  81.7294884  37.3854160  48.9570332  80.7787228  37.8515959  50.7989979
  80.5494499  37.1376109  51.5900469  82.0746517  38.5502481  51.1177254
  82.6282024  38.8981676  50.2455807  81.9379425  39.3288374  51.8682003
  83.0902386  37.5622988  51.8320942  82.8947258  36.3968349  52.0342588
  84.0501499  38.0713177  52.3826265  79.6597338  38.8830829  50.8034992
  78.9879560  39.0165401  51.8794441  79.3468142  39.5203924  49.7053432
  80.0634480  39.4593072  48.9962530  78.1860495  40.3453207  49.4012880
  78.1463623  41.0929346  50.1935053  78.2505655  41.0747623  48.0864859
  78.4603167  40.3260231  47.3226118  77.0269537  41.7997122  47.6426840
  76.7959929  42.7411461  48.1411409  76.9883204  41.9833183  46.5689516
  76.1375809  41.1925316  47.8113413  79.2714977  42.1608543  48.0950451
  80.2264500  41.6392994  48.1593513  79.1063261  42.7334452  47.1823740
  79.1185236  42.7328539  49.0102053  77.0078850  39.4578218  49.5354176
  76.1048698  39.7840428  50.2730417  77.0223427  38.2224965  48.9168167
  77.8399897  37.8978634  48.4206486  75.8801699  37.3009372  49.1086340
  74.9541092  37.8605795  48.9770412  75.9902525  36.1425185  48.1534863
  76.9731569  35.6814528  48.2505035  75.1903057  35.4492331  48.4133673
  75.7376671  36.6760755  46.8069744  74.7887516  37.2124171  46.8071795
  76.5844774  37.2577357  46.4427233  75.6019783  35.4308724  45.8640575
  76.4813375  34.8339534  46.1059523  74.7537851  34.8886251  46.2819529
  75.3435278  35.7876849  44.4732714  74.4347477  36.2029386  44.3256474
  76.1627102  35.6090617  43.4058571  77.1969128  34.8836374  43.3947229
  77.6508665  34.5330739  44.2260695  77.6171541  34.7291327  42.4893904
  75.8470058  36.1950302  42.2730017  75.1868963  36.9577098  42.3247528
  76.4819241  36.0507393  41.5008879  75.6420612  36.8502808  50.5893183
  74.4954300  36.7822242  51.0325098  76.7103004  36.5929770  51.2653351
  77.5980711  36.6271067  50.7849264  76.7350435  36.1587787  52.6947451
  76.1556673  35.2357149  52.6753521  78.2164621  36.0552979  53.1181288
  78.7218904  35.4857850  52.3381948  78.6414671  37.0590162  53.1135893
  78.5010719  35.5755472  54.5480776  78.0947781  36.1918259  55.3500891
  77.8211975  34.2057848  54.6660328  78.1216955  33.6147523  53.8008833
  77.9288578  33.6898494  55.6201410  76.7336512  34.2758441  54.6449995
  80.0758934  35.4618883  54.7111225  80.4660606  34.6946645  54.0423632
  80.5849934  36.3955498  54.4719553  80.3686905  35.2043867  55.7289886
  75.9690571  37.0852804  53.6719990  75.0355530  36.7060995  54.3843365
  76.1303473  38.3877969  53.4347010  76.8541241  38.8224196  52.8803062
  75.4843378  39.4008088  54.2985487  75.6939030  39.2333651  55.3550243
  75.9960556  40.7635641  53.8930035  77.0348024  40.8665943  54.2068243
  75.9203148  40.7511330  52.8057098  75.3579283  42.0177984  54.5305443
  74.3525124  42.0474148  54.1105938  75.4395914  41.9303370  55.6139565
  76.1039066  43.5550261  53.9795017  75.9551764  43.1267834  52.2639322
  75.0595379  42.5425529  52.0527220  75.8961201  44.0432787  51.6768599
  76.7103529  42.4266672  51.9066525  73.9690781  39.4116688  54.1180897
  73.2045746  39.4110918  55.0725985  73.5035086  39.4286156  52.8194618
  74.1673803  39.4109607  52.0584965  72.1041870  39.2415714  52.4155760
  71.5846920  40.1078033  52.8252935  71.8864822  39.3257093  50.8450842
  72.2599077  38.4040570  50.3987551  70.8351946  39.4326210  50.5777550
  72.5488329  40.5072165  50.1635075  72.3468685  41.7788839  50.7345200
  71.7608166  41.8076706  51.6412258  72.7454805  42.9508448  49.9868011
  72.6997471  43.9710379  50.3382492  73.4165430  42.7676439  48.7620354
  73.8556862  43.5883999  48.2143927  73.5843897  41.4545107  48.2447386
  73.9982414  41.3468790  47.2530031  73.1856012  40.3273487  48.9585161
  73.3767462  39.3126035  48.6420488  71.5480280  37.9066896  52.9850721
  70.5265713  37.9645801  53.6611128  72.2737932  36.7989349  52.7898026
  73.0359221  36.9397259  52.1421671  71.8620491  35.4505420  53.2158661
  70.9259510  35.1486826  52.7460814  72.9371500  34.4585133  52.8846884
  73.2026100  34.5854020  51.8351507  73.7875462  34.6077156  53.5500145
  72.3428154  33.1693912  53.2099390  72.9158592  32.5043392  52.8214407
  71.6784573  35.3506923  54.7333622  70.6530714  34.8805380  55.2101898
  72.5376701  36.0958385  55.5053377  73.4974337  36.2893629  55.2573490
  72.2539854  36.1489701  56.8820667  72.0650053  35.1277757  57.2130489
  73.4455967  36.7743134  57.5809097  73.6412191  37.7533841  57.1435833
  73.1710243  36.8023372  58.6353874  74.6759892  35.9157634  57.5160122
  74.7165680  34.7180986  57.5492144  75.8655357  36.4614725  57.5126791
  76.6830969  35.8720636  57.5781965  75.9488821  37.4680209  57.5092220
  70.9842205  36.9704175  57.2098446  70.2478695  36.5904784  58.1255007
  70.6150150  38.0367327  56.4777899  71.1327124  38.1277609  55.6153488
  69.2275095  38.5298085  56.5400124  69.0070868  38.7717724  57.5797081
  69.1386795  39.8273396  55.7006168  69.9802876  40.4808855  55.9301138
  69.1483116  39.6457338  54.6258926  67.6182842  40.7023668  56.0659313
  67.9304504  41.8642044  55.4849052  68.1108665  37.4759293  56.1855221
  67.1541643  37.3693323  56.9403362  68.2899523  36.5755892  55.2097702
  69.2072868  36.4045763  54.8233032  67.2151709  35.6064248  54.8697853
  66.2444067  36.1011434  54.9010658  67.4625969  35.2225971  53.3704901
  68.2720661  34.4938064  53.3289194  66.5899849  34.6587586  53.0407476
  67.7130270  36.3876510  52.4402809  66.9124842  37.5197411  52.5062466
  66.2348557  37.5589609  53.3462954  67.0785666  38.5456133  51.5502644
  66.5611124  39.4907331  51.6237307  68.0494070  38.4651279  50.5295086
  68.2342052  39.4842839  49.5911217  68.9855528  39.3290043  49.0140867
  68.8773966  37.2938347  50.4885292  69.6673918  37.2197008  49.7558546
  68.7012529  36.2880659  51.4274311  69.2219257  35.3433537  51.3742733
  67.2099352  34.2925429  55.7200432  66.2523937  33.5037327  55.6758261
  68.2328653  34.0697885  56.5263081  69.0119457  34.7117543  56.4945745
  68.3411264  32.9423666  57.4612570  67.8305483  32.1127892  56.9721651
  69.8247671  32.5586343  57.4806786  70.2064419  32.2181273  56.5181398
  70.3455210  33.4868765  57.7158022  70.3543377  31.5943384  58.5057068
  71.4114332  31.5925980  58.2399082  70.3709126  32.0768070  59.4829702
  69.7439432  30.2138710  58.5666418  68.8421583  30.3671145  59.1594362
  69.5419216  29.9039125  57.5413561  70.6706524  29.2254543  59.2502213
  71.6163063  29.1834712  58.7097836  71.0078287  29.6662021  60.1883888
  69.9963379  27.9411602  59.5115662  69.3760300  28.0211115  60.3046131
  69.4138861  27.6615262  58.7352562  70.5795097  27.1450520  59.7265720
  67.8087902  33.2273173  58.8934231  67.0842028  32.3706102  59.3578720
  68.1473541  34.3861818  59.5755100  68.8371325  34.9832821  59.1421795
  67.5662661  34.8665118  60.8784580  67.4234962  33.9949131  61.5172338
  68.6471796  35.8556318  61.5647173  69.6435213  35.4146290  61.5343904
  68.8193798  36.7518926  60.9687567  68.3469200  36.2905979  62.9962778
  68.4266376  35.3329659  64.0762043  68.6070824  34.2933869  63.8457298
  68.1651926  35.7811332  65.3657484  68.1590843  35.1549697  66.2456799
  67.7274179  37.1153235  65.5893278  67.5698042  37.4824119  66.9285154
  68.0438185  36.7933631  67.3998165  67.7423906  38.0642986  64.5690250
  67.4908781  39.0813661  64.8311663  67.8874969  37.6179886  63.2405901
  67.7232075  38.2751203  62.3994064  66.2797213  35.6169558  60.8416796
  65.5082798  35.6294155  61.8350554  65.8854055  36.2970448  59.7626305
  66.5129519  36.3037252  58.9712715  64.6068478  36.9538713  59.5542860
  64.1141987  36.9649148  60.5265379  64.8704910  38.4641957  59.1570330
  65.1474380  38.4263968  58.1034851  63.9763260  39.0779519  59.2660093
  66.0030842  39.0848756  59.9093580  65.9451389  39.2761683  61.0935879
  67.0258665  39.4151068  59.1465235  67.8321123  39.8086810  59.6103907
  66.9192266  39.2454815  58.1566000  63.6323690  36.3241625  58.5167789
  63.9824295  35.7530856  57.4962044  62.3381662  36.2984061  58.7697983
  61.7255306  36.7207980  60.0104570  62.0372963  37.7540684  60.1629782
  61.9372416  35.9917855  60.7926512  60.2098846  36.6622210  59.6949625
  60.0123644  37.5972652  59.1707659  59.6854210  36.4119744  60.6171417
  60.0266981  35.5080485  58.7492180  59.1213846  35.6533909  58.1598234
  59.9818945  34.5593333  59.2840385  61.3086700  35.6365252  57.9276562
  61.6556644  34.6732640  57.5537252  61.0427809  36.5461159  56.6967201
  61.2885809  37.7484584  56.8022203  60.6146193  36.0445118  55.5121851
  60.1329136  34.7050238  55.2454710  59.5045996  34.4084477  56.0853338
  61.0083628  34.0566087  55.2101231  59.2986250  34.7455597  53.9609766
  58.2830286  34.9037123  54.3238211  59.3693209  33.8308287  53.3724403
  59.9268055  35.9107471  53.2576180  59.0820456  36.2701225  52.6699686
  60.8103132  35.6955719  52.6566124  60.3195381  36.8762398  54.3487883
  61.2656689  37.3853230  54.1650152  59.2694712  37.9518008  54.5621061
  59.2550993  38.9758039  53.7964058  58.4720469  37.8474450  55.6011105
  58.4522963  36.9778919  56.1145210  57.5816250  38.8972330  56.1457157
  57.0987177  39.3822503  55.2973843  56.4020252  38.3048487  57.0116425
  56.7909622  38.2543349  58.0286360  55.5818510  39.0209365  56.9602919
  55.8385324  36.9003201  56.6614389  56.5184784  35.9132504  56.9864130
  54.7358322  36.8845224  56.1135340  58.2601261  40.0943851  56.8032169
  57.5787878  41.1117220  56.8621683  59.5244265  39.9442768  57.3170137
  60.0924587  39.1542506  57.0462704  60.2042341  41.0152197  58.0290651
  59.5401096  41.4254665  58.7898111  61.4839983  40.3806400  58.7084723
  61.1894178  39.4408512  59.1755056  62.2273874  40.2164888  57.9283905
  62.0697021  41.2664986  59.7719479  62.3903990  42.6088667  59.6316099
  62.8614855  43.0282593  60.8525229  63.1760597  44.0219831  61.1353016
  62.8386307  42.0129204  61.7005539  63.2263803  42.0399952  62.6327658
  62.3790073  40.9221077  61.0546207  62.2285891  39.9424386  61.4836073
  60.5416298  42.0818186  56.9961214  60.9377766  41.7819929  55.8614492
  60.4293537  43.3607864  57.4297380  59.8683453  43.5181713  58.2547235
  60.7108784  44.5257092  56.5284443  60.0845671  44.3232203  55.6596327
  60.1082897  45.8317947  57.1012497  59.2075539  45.7320070  57.7069139
  60.8175611  46.3326168  57.7601957  59.6616507  46.7477226  55.9007215
  60.5217361  47.0382023  55.2974129  58.8386726  46.2619209  55.3765059
  59.2025471  48.1286335  56.5090322  58.1680584  48.5654068  55.9885836
  59.6839666  48.6704445  57.5307083  62.1673012  44.5631266  56.0469580
  62.4758148  44.9290514  54.8885918  63.0427647  44.0804482  56.9306421
  62.7564383  43.7864017  57.8534937  64.4634485  43.9693260  56.6487265
  64.7244167  45.0038671  56.4257383  65.2460814  43.7791634  57.9675484
  64.8058176  44.4870329  58.6698246  65.2968407  42.3043156  58.4923983
  66.1108446  41.7695761  58.0029488  65.3094387  42.3584843  59.5809746
  64.4498873  41.6576195  58.2631493  66.7237616  44.2480993  57.9014063
  67.3011065  43.8517475  58.7366819  67.1664381  43.9471769  56.9518900
  66.7038488  45.3372478  57.8631353  64.8459053  42.9168177  55.5719423
  65.8791637  43.0267382  54.8980999  63.9377785  41.9302416  55.3418207
  63.1012344  41.8292570  55.8986855  64.0692568  41.0931015  54.1356897
  65.1141167  40.7989883  54.0363216  63.3626795  39.7269058  54.3193960
  62.2868156  39.8245287  54.4645929  63.5522175  38.8811755  53.0069780
  62.7632284  39.2668581  52.3613453  64.5079947  39.0381646  52.5070333
  63.5050964  37.8250313  53.2723904  63.9792109  38.8127899  55.4569197
  63.5943317  37.7939010  55.4141426  65.0575876  38.7169194  55.3303909
  63.7037468  39.2876410  56.3985872  63.6875391  41.8618441  52.8553867
  64.3020964  41.6083908  51.8139172  62.6954556  42.6921940  52.8944921
  62.2212648  42.8690434  53.7685490  62.2698259  43.4917402  51.7466593
  61.9692993  42.7857494  50.9724712  60.9937334  44.2208624  52.0789385
  60.5095387  44.6090698  51.1828613  60.2846527  43.5428858  52.5539780
  61.2784958  45.0749588  52.6933718  63.3860922  44.3486166  51.2121868
  63.5887098  44.4925880  49.9710608  64.1099453  44.9577761  52.1710682
  63.7717104  44.7813988  53.1062603  65.2715683  45.7862234  51.8735743
  64.9817848  46.5415049  51.1430407  65.5346918  46.6101408  53.1554127
  65.8231735  45.8853102  53.9166689  66.4330435  47.2025394  52.9818249
  64.3165398  47.4095249  53.6515427  63.9104843  47.8209972  52.7274704
  63.5488796  46.7811203  54.1031027  64.7219467  48.8142395  54.7461033
  64.9615335  48.0574799  56.3189936  65.0517368  48.9251995  56.9724655
  64.0831518  47.5133514  56.6660786  65.8974648  47.5025606  56.3838434
  66.4349842  44.9720097  51.1947584  66.9768238  45.3567410  50.1467180
  66.8883228  43.9203501  51.7674351  66.3950586  43.5010815  52.5426769
  68.0429697  43.0361509  51.2017775  68.9764929  43.5970116  51.1562157
  68.3081961  41.9175291  52.1273994  68.8324547  42.2297716  53.0305958
  67.3775673  41.4781523  52.4865437  68.8659525  41.1051607  51.6614914
  67.7551937  42.4758434  49.8078489  68.5864639  42.5220394  48.9301968
  66.5383625  42.0749426  49.6048117  65.8688402  42.1206856  50.3596306
  66.0755587  41.6673851  48.2516813  66.8528271  41.0042143  47.8719759
  64.6363735  40.9901857  48.2669067  63.9206314  41.7257500  48.6339998
  64.3435335  40.9213018  47.2192430  64.4929695  39.6481776  49.0287113
  65.0909805  39.7941279  49.9282551  63.4467316  39.4660711  49.2743397
  65.1812124  38.5068297  48.2470036  64.6819735  38.4168673  47.2822380
  66.2313557  38.7388062  48.0695581  64.9986124  37.2113180  48.9489079
  64.1852570  37.0580506  49.5277548  65.7745123  36.1781406  48.9763737
  66.8910217  36.0559368  48.2640648  66.9963789  36.6790485  47.4761963
  67.5430393  35.3025723  48.4296227  65.5467272  35.2502084  49.7999001
  64.6483469  35.3311038  50.2542830  66.2398005  34.5358300  49.9714279
  66.1099911  42.8737879  47.1866083  66.5987873  42.6580381  46.0894966
  65.6665707  44.0991926  47.5840807  65.2342749  44.1465044  48.4956598
  65.7810163  45.2703190  46.7372465  65.3008890  45.0389671  45.7864237
  64.9560690  46.3682175  47.3104382  63.8805866  46.1979389  47.2609901
  65.2007341  46.3665962  48.3726215  65.3500366  47.7205706  46.7778683
  66.3953209  47.9332972  47.0019913  65.2414274  47.8465414  45.7006311
  64.6106291  48.8225079  47.6083755  63.5410166  48.6173010  47.6521635
  65.0369120  48.8591576  48.6108923  64.7450638  50.1954937  46.9977903
  64.3163061  50.8867550  47.7233410  65.7661057  50.4457712  46.7097950
  64.0192080  50.3357220  45.7087755  63.0503416  50.0513792  45.7320976
  64.1485834  51.3120604  45.4848814  64.4711256  49.8188639  44.9680138
  67.2322750  45.6151152  46.3075686  67.5170708  45.7976532  45.1021004
  68.1742525  45.6283569  47.3130083  67.8423977  45.5313587  48.2619858
  69.6567535  45.9774733  47.0738649  69.6650600  46.8311691  46.3961935
  70.2404928  46.3747454  48.4905195  69.5474625  47.0023108  49.0508509
  70.3917122  45.3894234  48.9313889  71.6026974  47.1359205  48.4466076
  72.3355961  46.6451025  47.8062534  71.3463259  48.5399389  48.0503368
  70.3941441  48.8279676  48.4958601  72.1648502  49.2117977  48.3086491
  71.2440252  48.4889412  46.9663429  72.0243597  47.0858908  49.9535322
  71.2194252  47.5399590  50.5314636  72.3065710  46.0840559  50.2772474
  72.8488588  47.7809095  50.1124477  70.4944944  44.8409462  46.5335846
  71.4395094  45.1615286  45.9203148  70.0566292  43.5978556  46.6513777
  69.2366219  43.4059429  47.2089243  70.6209135  42.3914385  45.9937048
  71.7015886  42.5288343  46.0306501  70.2688265  41.0900736  46.7493153
  70.5963182  40.9961843  47.7847052  69.1807652  41.0267496  46.7641401
  70.9492779  39.9490094  45.9730768  70.5665922  39.8488951  44.9573851
  72.0358944  40.0252771  45.9337950  70.6698322  38.5875177  46.6153717
  69.7990322  38.4277844  47.4876690  71.2671995  37.4538636  46.2133121
  70.7997847  36.6185498  46.5356064  71.8420172  37.3582816  45.3883553
  70.2631044  42.4667406  44.4935417  71.1428690  42.1803856  43.6964035
  69.0545559  42.8820515  44.1129541  68.3724737  42.9813480  44.8511982
  68.6991739  43.1126738  42.6814175  68.9881802  42.2498655  42.0812988
  67.2554255  43.3710098  42.5097418  67.0153809  43.9303875  43.4139395
  66.9665051  43.8428545  41.5706015  66.3792467  42.0925379  42.5686121
  66.8605185  40.9547377  42.4014044  65.1619959  42.3141193  42.6735973
  69.4759178  44.2933083  42.0888615  69.6409082  44.2796373  40.8664608
  69.8745441  45.3027916  42.8735685  69.6745586  45.0938272  43.8412666
  70.7103252  46.4245987  42.4460697  70.3960752  46.7180681  41.4444542
  70.5715418  47.6054382  43.3772039  70.6461143  47.2303772  44.3979263
  71.5866184  48.7255430  43.2152367  71.2079477  49.5740986  43.7850285
  72.5528193  48.4495926  43.6376238  71.5662432  48.9327908  42.1453142
  69.1538000  48.1866503  43.3547592  68.4711838  47.3605442  43.5540009
  69.0719604  48.9611053  44.1173983  68.9422417  48.4957027  42.3311234
  72.1908712  46.0018921  42.3476648  72.9260969  46.3901138  41.4667988
  72.7513123  45.1785803  43.3344316  72.1222544  44.9020815  44.0746593
  74.0379286  44.5102167  43.1815672  74.7684002  45.3127241  43.0791235
  74.4445133  43.7113953  44.4069624  74.5504713  44.4415331  45.2093172
  73.5974646  43.0613565  44.6261930  75.5875444  42.8504038  44.3348169
  76.8392897  43.3887959  44.2203236  76.9469118  44.4433498  44.4270563
  77.9418421  42.5114298  43.9991379  78.9001036  42.9994822  43.8994408
  77.8289366  41.1562395  43.8700676  78.6827993  40.5509138  43.6038017
  76.5284634  40.6208515  44.0016747  76.3838577  39.5620108  43.8456345
  75.3886938  41.4146090  44.2723513  74.4167852  40.9714794  44.4317961
  74.1678286  43.6195278  41.9552708  75.0037575  43.7583113  41.1518097
  73.1866217  42.7221966  41.7867088  72.4368238  42.6430178  42.4587440
  73.1881952  41.6552544  40.7455969  74.1107273  41.0911179  40.8826876
  72.0149040  40.6525469  41.0112953  71.1579657  41.3054132  41.1772203
  71.8538761  40.1044512  40.0829840  72.2408342  39.5554686  42.0764256
  72.2189426  40.1811266  42.9687119  71.3147449  38.9835000  42.1339846
  73.4595537  38.6198831  41.9878197  73.8728476  38.2481980  40.8542585
  73.8539648  38.1405568  43.0879784  73.0981493  42.3228931  39.2819238
  73.8924408  41.9106722  38.4180188  72.2444868  43.2731867  39.0678573
  71.6467524  43.5770369  39.8231626  72.2587681  44.0685940  37.8072023
  72.0299292  43.2612562  37.1115398  70.9917402  44.9798727  37.6553869
  70.1659966  44.2749023  37.5591660  70.9125566  45.6035233  38.5458279
  70.9797764  45.8917379  36.4354181  71.2457752  45.3194714  35.5466795
  69.9584341  46.2432384  36.2890887  72.0669508  47.3292398  36.2472939
  71.6945934  48.1582069  37.8175783  72.0633650  47.6324606  38.6983156
  72.1300125  49.1533470  37.9081488  70.6154823  48.2707834  37.9222083
  73.6416912  44.6725512  37.4576330  74.1285610  44.4878244  36.3003707
  74.2471266  45.4122782  38.4179950  73.6955976  45.7587624  39.1899228
  75.6140900  45.9705353  38.2539368  75.7158375  46.5117407  37.3132753
  76.0173750  46.8817711  39.4306064  75.6818104  46.4707661  40.3827477
  77.0973682  46.9889307  39.3294287  75.3010511  48.2139397  39.2664790
  75.5933666  48.6629868  38.3172607  74.2396784  48.0239630  39.1068029
  75.6196165  49.1834545  40.4135132  75.2814198  48.7461424  41.3529158
  76.6984940  49.3379450  40.3973246  74.9592924  50.5322647  40.1912355
  74.0528631  50.6487131  40.6212664  75.5039310  51.5296412  39.5739055
  76.6335535  51.6035986  38.9159441  77.3088169  50.8921576  39.1567206
  77.0389128  52.3962307  38.4389567  74.9414444  52.7138758  39.6200967
  74.0787935  52.8353596  40.1311445  75.4158688  53.4790468  39.1623449
  76.7159271  44.8960495  38.0995846  77.5085115  44.9685097  37.1403933
  76.7563963  43.8492107  38.9386749  76.0537958  43.8658571  39.6640539
  77.6578188  42.7020931  38.8218832  78.7021446  43.0116034  38.8629293
  77.4327374  41.9062901  40.0336742  77.5946331  42.5406075  40.9051895
  76.4272070  41.4940119  39.9498010  78.3708858  40.6680441  40.3186607
  77.8710699  39.3669963  40.2595472  76.8304825  39.2174315  40.0121403
  78.7166834  38.3342099  40.5999088  78.3178282  37.3309255  40.5727577
  80.0199413  38.5934067  41.0634851  80.6719398  37.8070617  41.4141369
  80.5274010  39.8959780  41.2060261  81.5067196  40.0947809  41.6156769
  79.6796179  40.9444332  40.7968473  80.0021267  41.9665718  40.9296036
  77.5889015  41.9166613  37.4592996  78.5874414  41.5594912  36.8577433
  76.4201641  41.7621183  36.8563581  75.6449509  42.0526552  37.4349165
  76.1708832  41.2792778  35.5266380  76.8205070  40.4167223  35.3780270
  74.7332335  40.8160067  35.4013515  74.4617748  40.5088949  34.3913627
  74.6234274  39.9519706  36.0567021  74.0386772  41.5993881  35.7046890
  76.5450954  42.2120571  34.3816423  76.8256712  41.6792154  33.3369398
  76.6285086  43.5580444  34.5599246  76.2311506  43.8627481  35.4370594
  77.1326160  44.6289492  33.6822629  77.0010614  44.4178820  32.6210165
  76.2800455  45.8590126  34.0834546  76.1524343  45.9904528  35.1579499
  76.9210100  46.6968822  33.8091612  75.0281620  46.0083485  33.1994915
  75.4800224  45.8853817  32.2152114  74.2649794  45.2855682  33.4880114
  74.4965887  47.4398470  33.2002044  73.9941454  47.6962376  34.1328955
  75.2840424  48.1853580  33.0895829  73.5135984  47.6302958  32.0767450
  73.9293718  47.4542761  31.0846496  72.6204348  47.0109892  32.1592975
  73.0584669  49.0183783  32.1783423  73.7628078  49.7247219  32.0199800
  72.3851967  49.2137766  31.4512753  72.5883245  49.2089462  33.0517030
  78.6539984  44.8375463  33.9299273  79.3369102  45.3725958  33.0022097
  79.2503452  44.5157146  35.0819993  78.6258841  44.3947172  35.8665490
  80.7069302  44.6629047  35.4083419  80.8966446  45.7032681  35.6724477
  81.0394096  43.8644457  36.6887760  80.3104496  44.1749096  37.4373341
  81.0220718  42.8033018  36.4402342  82.4240685  44.2080259  37.2944403
  83.1566811  43.6733055  36.6899228  82.6469040  45.2569199  37.0988178
  82.7274704  43.8440752  39.0482020  82.6405811  42.0316029  39.2269063
  83.4467125  41.5545321  38.6695480  82.8536892  41.7276907  40.2517605
  81.6767979  41.6564798  38.8826394  81.5427876  44.2206478  34.1890526
  81.1618137  43.1691408  33.6507154  82.5733757  44.9893045  33.8799047
  82.8051090  46.4018965  34.2887306  82.9500198  46.4405727  35.3683615
  81.9716740  46.9901276  33.9047074  84.0938187  46.8531370  33.5557151
  84.9530792  46.6113091  34.1812444  83.9889050  47.8845835  33.2192469
  84.1034985  46.0028505  32.3008943  85.1290321  45.9355783  31.9377899
  83.3968353  46.4321709  31.5906715  83.5723782  44.6712065  32.8659415
  83.0267620  44.1140270  32.1043825  84.7135830  43.8730431  33.3808708
  84.9844551  43.7803411  34.6160460  85.5291557  43.3426809  32.4689388
  85.3056622  43.4854746  31.4943838  86.8284035  42.5897789  32.6937366
  86.7435551  42.2672129  33.7314510  86.8257999  41.2805033  31.9310451
  85.7974052  40.9212589  31.9692397  86.9261646  41.5155554  30.8714342
  87.8699970  40.2127075  32.4077630  88.7335873  40.3242111  33.2818222
  87.7329540  39.0672421  31.9493508  88.0976772  43.3648539  32.5963354
  88.4208679  43.6454821  31.4839625  88.8111305  43.6826754  33.6023903
  72.6502419  64.5162773  45.3041649  71.0279369  59.8813820  40.2186489
  18.5703599  48.1158829  81.8812084  94.1750050  68.8722706  59.8971844
  69.3975449  55.4891157  40.5281830  84.5980072  63.5446119  78.3256817
  29.8784661  74.1951227  67.8189802  65.3635263  66.2253475  46.1167097
  90.8782340  97.2847397  44.4295799  90.9136344  96.8240197  43.5913002
  91.6128064  96.9289477  44.9296295  86.7960835  52.9796330  18.3432114
  86.0184861  52.5487405  17.9883873  87.3651505  53.1094603  17.5845635
  30.5239108  95.0867064  17.4914372  30.6306174  94.9746115  18.4360420
  30.5750754  96.0327799  17.3552143  96.3788367  95.9900267  27.1694958
  95.8310605  95.2900345  27.5247204  97.2682620  95.6377013  27.2013676
  55.4912141   0.9189016  21.5120995  54.8512700   1.5424854  21.8553936
  55.0889066   0.0616199  21.6515553  57.2761345  74.7854948  77.0277929
  56.7553806  74.9728823  76.2468100  57.4438715  75.6444025  77.4155855
  97.3028708  88.6779387  31.8454945  96.5657235  88.6120064  32.4525273
  97.7952433  89.4407899  32.1485817 100.8590270 100.7160933  24.4832337
  99.9887753 101.0290177  24.2363083 101.0911847 100.0887902  23.7985241
   3.4713792 101.4695228  82.4418259   3.1443404 102.1058542  81.8059349
   2.8140639 100.7737029  82.4441147 111.5727235 105.3406603  21.2311184
 112.0248986 104.9091322  20.5061638 111.7058850 106.2754376  21.0739815
  47.0448401 100.9082825  17.6876747  46.9702151 101.8578036  17.5924408
  47.9133894 100.7730992  18.0665886  53.9447549  17.3572857  29.5968735
  53.1492570  17.7428228  29.9639904  54.4459298  18.1055338  29.2725670
  95.3649999  76.3762171  16.1935723  95.9064961  75.5874093  16.2218105
  95.5542947  76.8262799  17.0168888 107.6949073 106.3993247  38.9610874
 107.7175380 105.8010466  39.7079289 108.0698920 107.2140820  39.2954361
   5.6291773  82.7885110  60.4443943   4.9993613  82.2933967  59.9205410
   5.7768824  82.2448833  61.2182724  73.6990500  92.1705945   4.2294132
  73.6138798  93.1035430   4.0329849  73.2900716  91.7306144   3.4841740
   1.5060713  68.1023104  36.2362492   1.5678647  69.0291889  36.0053551
   1.3229659  67.6606090  35.4070294 100.8277799  96.3867171  55.4316914
 100.6354285  95.9320195  56.2517464 101.4702416  95.8287032  54.9934113
   1.6481688  98.7095530  18.6595165   0.7529023  98.7018139  18.3208954
   2.1974328  98.5734875  17.8874886   2.0564702  71.2742753  19.7167217
   1.9364598  71.0333593  18.7981426   1.2470772  71.7272277  19.9532520
   0.1760056  63.5540278  33.5771763  -0.3273866  62.8148402  33.9183914
   0.9794571  63.5571928  34.0974533   5.2396967  85.6418903  57.8518307
   4.8056700  85.9758670  57.0667755   5.4733183  84.7402556  57.6311314
  37.6239017   4.3882400  15.0285256  36.6728977   4.4585831  14.9456131
  37.8856948   3.8171274  14.3063557   1.2180092  80.5341942  13.4381878
   1.6245606  80.8190258  14.2566120   1.3251069  81.2784369  12.8458512
   8.1475165  91.2463529   3.5436642   7.7367880  90.4017766   3.7286675
   8.8760378  91.2990220   4.1623032  38.7548163  84.3942602   6.0814583
  38.7554553  85.3512151   6.0598004  38.6183360  84.1341646   5.1704323
 111.4489938  79.3146069  61.2322819 110.7744504  79.8842223  61.6020977
 111.5453196  79.6132906  60.3279888  15.9857657  95.4705555  22.3154938
  16.2870409  96.1048062  21.6649639  16.4691451  95.6950028  23.1106007
  97.0036460  83.5034616   7.1706402  96.0652543  83.3861310   7.3185932
  97.0834971  83.6259158   6.2246716  38.3341888   8.1764204  60.3742134
  39.0451911   8.4862883  59.8132431  37.7383140   8.9226467  60.4398548
 104.6162225  67.5809426  41.6971218 103.9286853  68.1975181  41.9488346
 104.5936633  67.5746114  40.7402050  94.8187352  59.1593392  33.4577953
  95.2364922  59.2367024  32.6000511  93.9269734  58.8700409  33.2646572
  10.5939581  86.2417753  28.1743920  10.2305510  86.3882406  27.3010647
  10.2791502  85.3724248  28.4221089  97.8469468  77.9040296  21.2966072
  97.0344973  77.4368627  21.1019051  98.4512044  77.2218664  21.5894520
  94.4586564  76.8926723  30.7829392  94.2129374  76.1361916  31.3154709
  94.2490340  76.6323931  29.8859703  40.7562497  11.9680483   7.7802288
  40.2649644  12.6943666   8.1640732  41.5330985  11.8855555   8.3333409
  45.0208952  88.3152421  18.9262020  45.3840926  89.1293342  18.5775292
  44.8415377  87.7819760  18.1518089  19.3995669  68.8188667  38.3326447
  20.2848055  68.4548945  38.3430016  19.3005469  69.1828878  37.4529183
  46.7327359   8.0319435  10.0288117  46.9819310   8.3101780  10.9101307
  46.5432123   8.8474352   9.5648205  92.2993756 101.2701781  38.1917679
  92.9343987 101.8818505  38.5643780  92.8002263 100.7660468  37.5504982
  98.5041905 101.6489203  23.3421051  98.0040313 102.3846657  22.9888928
  98.2034779 101.5673859  24.2471707  21.0285666  98.5664923  17.6317894
  20.3683665  99.2065175  17.3658287  21.8647959  98.9958127  17.4511254
   1.3803341  71.5995128   6.0559380   1.9086602  71.4873858   6.8462097
   1.7897608  71.0234411   5.4103863  27.4833110   7.9945118  36.9111931
  26.5399268   7.8791649  36.7974102  27.5650743   8.5454447  37.6896584
  89.8544312  89.7137291  68.6361706  89.1012336  89.8758657  68.0681622
  90.0072003  90.5500824  69.0759480  95.4621220  44.9980307  75.2458811
  95.2102757  45.7595253  74.7234535  95.2184105  44.2460442  74.7061110
 102.0024062  54.4192012  26.2439072 101.9920398  54.5325840  27.1943104
 102.8805686  54.0905202  26.0514748  22.7928165   5.0841505   1.3560402
  23.1977084   4.6844417   0.5862820  23.4342435   4.9601824   2.0556366
  14.5367434  62.0667942  14.9690544  14.7473051  62.2483916  15.8849728
  13.9634421  61.3009931  15.0023758  25.0899603  80.2986581  39.1021168
  25.2988722  80.8473380  38.3461201  24.8235228  80.9182031  39.7813904
 112.6670791  64.5395978  46.6212666 112.5352813  64.4584162  45.6766617
 112.0703126  63.8956244  47.0025742  95.3875638  89.6388037  13.9208615
  94.5834494  89.8568018  13.4495938  95.1060201  89.0355976  14.6086895
   9.6987631  93.4677537  33.4395420   8.7826636  93.5186608  33.1667626
  10.0651171  92.7546532  32.9165661  97.2638369  86.3063700  57.3879444
  97.2843839  87.2577412  57.2844803  96.4935780  86.1411555  57.9316628
  10.7837298  64.1943641  22.0856106  10.9271243  63.5851700  21.3613522
  11.0414412  65.0472648  21.7357838   0.6057312  69.0669317  31.2092507
   0.2857020  69.5140524  30.4257309   0.6569006  68.1454999  30.9551251
  28.8292029 102.5041707  11.5007221  28.7069704 101.9435580  10.7345593
  28.0123427 102.4192603  11.9924080 108.3489799  48.8209057  74.5439482
 107.6297665  49.2453623  75.0117016 107.9175568  48.2617235  73.8978720
  78.9650536  96.2525685  35.4089462  79.1566659  95.9453518  34.5228684
  78.5667230  95.4981978  35.8430969   4.8435595  78.3954055  29.3454945
   5.7375433  78.7332327  29.2917931   4.5045474  78.4721072  28.4536373
  13.1094458  93.5976250  35.2660477  12.5412085  94.3385394  35.0553906
  13.9620020  93.8391287  34.9040234 101.8209029 106.2458689   2.4641716
 100.9114934 105.9472830   2.4562847 102.0435763 106.3598950   1.5402424
  90.1516867  88.4539182  40.3588020  89.9504805  87.9479773  41.1460602
  91.0791636  88.2831676  40.1948940  71.6863966  58.4174252  82.7323627
  72.1433973  58.6414385  81.9216919  71.8493891  57.4813652  82.8483868
  49.2796949  28.8612921  56.9528401  50.1559308  28.7921411  56.5738213
  49.0810159  29.7973043  56.9276440  37.4185231  12.3915274   6.2158310
  37.6692251  12.8336842   7.0269310  38.0042413  12.7570850   5.5528652
  22.1111444   0.8241732  28.3119499  21.5795329   0.8715565  29.1065418
  22.7856496   1.4921266  28.4348595  79.3822339  32.3745520  51.4280426
  80.0940564  32.9229052  51.0981095  79.7780374  31.8704206  52.1389782
  28.3350566  14.6485359  17.7317536  28.7665227  14.7526533  16.8836796
  28.3777002  15.5176861  18.1304848  50.4017785   9.9840719  11.8820011
  49.5705846   9.5555002  12.0861542  51.0541681   9.4904835  12.3789799
  83.0715991 100.8871443  31.8383228  83.6066867 101.5670187  32.2478211
  83.2640124 100.0956709  32.3410999  19.3080428 101.9121249  20.2035916
  20.0587370 102.3753579  19.8319733  18.7583449 102.6036770  20.5721295
  94.6018220  83.4888561  15.8105576  93.6926986  83.5054762  16.1096489
  94.5473481  83.6540539  14.8692906  96.0554314  90.6289895  26.9127094
  96.1262847  91.4746029  26.4698231  95.7146550  90.8414919  27.7815830
  24.4381383   4.2650062  12.2296917  24.6442130   4.5933754  13.1048691
  24.4252160   5.0467426  11.6774666  31.9739535 102.2234137   9.6525967
  31.7440798 103.1180413   9.4015228  32.9269602 102.1888335   9.5699894
   1.7491677  85.1780875  35.7352841   1.0933735  85.0038512  36.4104187
   1.8878415  86.1243708  35.7746136  35.8052018  14.5706350   7.5949871
  34.8584560  14.5064432   7.7206242  36.1786130  14.1981823   8.3937847
  19.8589662  11.2579090   4.0659153  19.9031928  11.8804914   4.7916329
  19.8211768  11.8060190   3.2820904  32.8929952   8.5197527  28.6190521
  32.2060064   9.1100628  28.9285862  33.0498174   7.9280216  29.3549072
  19.8424437  76.4908130  33.2639801  19.6789172  77.2051127  33.8798344
  20.1149752  76.9278557  32.4571716  47.9193452   5.1899130  49.8453724
  47.9459527   4.2883140  49.5249951  47.3772195   5.6546957  49.2079556
  74.3171597  87.7255726  87.6824093  75.1334620  87.2483540  87.8312206
  73.8957262  87.7529716  88.5414028 102.6268960  65.6518526  16.0791504
 102.2689772  64.9428899  15.5448353 102.0371343  65.7062371  16.8311226
  43.1695795  38.1930399  72.6561022  43.4170723  37.5300074  72.0116138
  43.5326719  39.0090322  72.3117876  36.4181235  89.6388872  27.7978718
  36.9527628  89.0278656  28.3048641  36.2857726  89.2007334  26.9571983
  44.0920785  25.5878288   8.3000576  44.5995191  25.0716860   8.9264214
  44.6895078  26.2821657   8.0221951  92.5628043  78.9086659  42.0997154
  92.3458482  79.6702368  42.6374638  91.7212106  78.4825404  41.9373238
  49.7214750  33.9976961  17.3092281  50.6755975  33.9474565  17.2512924
  49.4308904  33.0864698  17.2711003  27.5621417  36.8911821   2.6753723
  26.6333154  37.1183664   2.7189648  27.5903323  35.9573442   2.8836643
  93.3194542  20.6857753  86.7198277  93.6980915  20.1541328  86.0196781
  92.3859596  20.4747629  86.7026711   9.0398695  64.6544237  15.2056515
   8.9241221  64.6053286  14.2567455   9.2235091  65.5780716  15.3770649
  54.9436906   0.7657368  25.9474575  55.2651838   0.3453476  25.1498711
  55.2643636   0.2094585  26.6573536  78.3311177  71.8087537  39.8786461
  78.5815240  70.9720845  40.2704537  77.6016713  71.5924592  39.2978298
   3.8780549 106.2361176  15.0084030   3.6991932 107.0067389  14.4695294
   3.8384678 106.5589459  15.9086525  91.4906455  88.0383832  47.6413166
  92.0843459  87.4669678  48.1283867  91.1823941  87.4987609  46.9132912
  13.6448004  65.9396274  71.9340717  14.5524790  66.2420626  71.9637692
  13.5091498  65.5059929  72.7765667  17.0511153  95.8855469  41.9752323
  16.9925024  96.5880902  41.3277447  17.3857977  96.3134797  42.7633297
  23.9844515  87.6122291  35.2105629  23.5005667  87.2456582  35.9506333
  23.4214308  88.3118207  34.8791802 102.4744130  76.2779553  35.9593689
 103.1723929  76.1670716  35.3137982 101.7442227  75.7649429  35.6131375
  32.3048070   7.6633245   9.5441639  32.2350934   8.4130270  10.1351940
  31.3987783   7.4468548   9.3239796  76.5934086  22.5234795  81.4025307
  75.9588575  22.8926992  82.0167446  76.7358971  23.2177305  80.7591534
   6.1899760 101.8038733  15.3175175   5.3904631 102.2233660  14.9996674
   6.1033823 101.8145640  16.2707340 107.6200677 105.2458794  17.5234806
 108.3753587 105.1461251  18.1029808 107.7703906 106.0781510  17.0752060
  80.2217674  12.4914360  86.1790848  80.0336170  13.3331418  86.5942478
  79.8396873  12.5650120  85.3045368  19.6032526  58.3202274  22.8845036
  20.3268816  57.8474809  22.4732697  19.1255286  58.7105782  22.1526348
 106.0796166  45.7454772  28.5177338 105.8448077  45.1015646  29.1859257
 106.6573764  45.2707590  27.9201901 104.5103169  97.1707184  11.9463074
 104.4023610  97.0026047  11.0101902 104.6328784  96.3036330  12.3327934
 106.1227275  90.9653528  45.1738274 106.2769605  90.8912141  46.1155998
 106.5797282  90.2137430  44.7963822 101.5867805  22.6975989  85.3594494
 101.1173916  23.0994487  84.6284008 101.2621880  23.1569409  86.1339664
  76.1793950  21.6076977  22.2013390  75.9485391  21.9084293  21.3224137
  75.6883767  22.1829922  22.7879917  91.2513638  47.9891634  77.4861574
  91.1405849  48.7684774  78.0308008  91.8917942  47.4564838  77.9576731
 103.1791306  40.0635290  91.1488056 102.8205013  39.5450330  90.4285431
 103.8038635  39.4783998  91.5772533  13.2175639  65.3311462  16.1971676
  13.6241057  65.3852744  15.3322804  13.0296042  66.2401707  16.4307797
 108.9115001  51.3885197  10.7494747 109.8266364  51.6350393  10.8836090
 108.4795190  52.2027009  10.4911530   3.5913756 105.7526143   4.0800678
   2.6572373 105.9086163   3.9412319   3.6304667 104.8964913   4.5063984
  93.7921333  20.2237964  61.3756323  93.2477283  19.4589102  61.1890793
  94.6627712  19.9806321  61.0608292   1.1420587  26.2319595  76.2657749
   1.2642244  25.5116827  76.8842518   0.5348566  25.8857376  75.6118214
  12.5028184   5.5233890  33.3169949  12.0535186   6.3655455  33.2453072
  11.7975238   4.8765451  33.3365643  44.4774774  40.7374842   2.5578797
  45.2029470  40.1440889   2.7523148  43.9523652  40.2692015   1.9088757
  41.9909814   7.6328928  19.5119488  41.0949329   7.9390604  19.6518910
  42.1282104   6.9744093  20.1929676  54.3814710  10.6581623   1.4808285
  55.2565625  10.9054739   1.1820233  54.5071462  10.3840906   2.3892986
  64.5665696   8.4195072  36.4141190  65.1609090   8.2489950  37.1448147
  64.1241792   7.5838358  36.2651932  90.0042629  88.5673428  59.5733881
  90.6363869  87.8681755  59.4066429  89.5772266  88.3139992  60.3917313
  44.7662786   1.9429476   1.5002453  44.4619420   1.4720184   2.2760212
  44.2262224   2.7327473   1.4722931  25.9230044  53.9917537  13.3023750
  26.1879923  54.6702356  13.9233982  25.7725432  53.2169412  13.8438999
  95.6750298  82.8798063  12.3495209  95.6985999  82.3507245  11.5521824
  94.7602940  82.8499014  12.6298535  33.0797099 106.2039276  73.9102650
  32.9324865 105.7760203  73.0667877  32.6707696 107.0643289  73.8169575
  84.1615249  56.2380062  12.0345032  84.6299458  56.4228223  11.2204659
  83.9253999  55.3126202  11.9701683 109.4487668  99.2506773  27.0444023
 110.2688456  99.5066340  26.6222775 109.6059085  98.3577569  27.3513710
   4.2279770  69.6275051  10.3355896   4.7281172  69.2450638   9.6146023
   4.4072154  69.0550776  11.0815346 105.6399108  49.3248988  18.1014645
 105.9584666  50.1875846  17.8358948 104.8349810  49.2015107  17.5983822
  88.2928754  87.9785640  11.1595356  88.4561730  87.1484168  10.7118523
  87.7256490  88.4655316  10.5617439  38.4536933  96.3849187  68.3645296
  38.8739442  96.7138732  67.5699186  37.9581689  95.6192291  68.0739975
  96.1092425  78.7586577  26.7820656  96.7140866  78.6893995  27.5207150
  95.2720261  78.4497364  27.1282875  47.9874039   9.5449793  87.0787048
  48.1990242   9.2967319  86.1788082  47.0348597   9.6391279  87.0835018
 110.4289008  46.6347213  47.0639431 110.9441043  47.4410338  47.0895493
 110.5654050  46.2358792  47.9233181  17.8544425  93.8059378  85.0639439
  18.4662341  93.4311557  84.4303226  17.9663848  93.2713819  85.8500481
  73.9229465  67.4608178  37.5901901  73.0148340  67.2359045  37.7926171
  73.8634730  68.2841642  37.1056282  70.0544548   3.2137451  78.4933949
  69.4179916   3.2056427  77.7784967  70.8673620   3.5141233  78.0869675
  43.2066201  86.4916158  90.6252098  42.3550367  86.3415909  91.0357380
  43.0193566  87.0789278  89.8929310  30.1231387   3.0315191   6.6892540
  30.5317453   3.4162170   7.4646771  29.5735696   3.7311489   6.3360989
  97.5554229  59.4260849  26.5003884  98.0788375  58.7131764  26.1342823
  98.1872035  59.9699296  26.9708359  -0.0466440  56.9294117  25.1596367
   0.5467894  56.6399382  25.8526528  -0.3153417  56.1218537  24.7215855
  20.9115695  88.2404638  75.7097197  21.7574643  87.9456974  76.0470676
  20.6403684  87.5489796  75.1059580  60.5596494 104.8172768  69.0984774
  60.3173780 103.8912443  69.0971088  61.4572858 104.8305013  68.7663603
 103.1718446  36.3120086   2.6712429 103.0512095  35.7898278   3.4643471
 102.9342604  35.7208927   1.9568455  85.9733200  22.4751949  91.9918633
  85.1124001  22.2114372  91.6670704  86.5844917  22.1813297  91.3163376
 101.4130116  80.3630931  33.1067001 101.4233113  79.8135693  33.8903820
 102.3370458  80.5167158  32.9097378 113.2485343  58.7517763   4.0186989
 113.3298207  57.8419600   3.7325871 112.3111821  58.9375223   3.9630234
 108.5568715  56.4665393  11.4253914 108.5640479  55.5814104  11.0610783
 108.4466077  57.0375783  10.6651413  59.3680429  42.4603319  88.5588551
  58.5677481  41.9368887  88.6008453  59.8914385  42.0432043  87.8745365
  12.4114802  74.8004754   9.1036904  12.8025725  74.2899258   8.3947289
  12.1935656  75.6412489   8.7013828   6.2094500  74.8801262  19.7995007
   6.6988471  74.5657094  20.5596840   5.7547572  74.1049345  19.4700157
 101.9199468  57.8548591  22.1187889 102.0147372  58.3040650  22.9587090
 102.2254372  58.4903772  21.4714634  64.1135693  31.7840910  91.0205936
  64.5360899  32.2698069  90.3122234  63.1766272  31.9163561  90.8760738
  85.3092385  34.5080085  17.9863178  85.3270102  34.6502883  18.9327156
  85.4818059  35.3714902  17.6110089  98.7646628  29.1860731  28.4626305
  99.6775342  28.9838583  28.2576763  98.4744454  29.7423537  27.7397453
  91.6197586  46.5425110  86.5447903  90.9479141  47.2068405  86.3914299
  92.0780849  46.4677000  85.7077885  99.1799403  95.2542002  31.1923039
  98.5196639  95.9469683  31.2107098  99.9873496  95.6996281  30.9355652
   7.2142794  75.8451517   6.6245854   8.0218222  75.8540494   7.1384155
   6.5449336  75.5373199   7.2356808 108.9876844   1.6348869   1.4322388
 109.6980335   2.2519190   1.6080486 109.3014886   1.1123497   0.6941998
  72.2673059  62.8559370  39.2671787  71.7682887  62.1788068  39.7240269
  73.0885053  62.9184390  39.7549832  29.7788719   3.4833176   3.8126480
  29.8136476   2.6053173   4.1922962  30.4728368   3.9660675   4.2616474
  71.3442183  50.2781200  85.2274132  71.4785147  51.2115479  85.3914642
  70.4047489  50.1454258  85.3539848 112.5231648  54.8679375  14.3169415
 113.1996394  55.5176191  14.5080673 111.7001582  55.3117937  14.5216095
  71.4057780  56.6197993   9.7298538  72.3325134  56.4563597   9.9050152
  71.1146832  57.1595894  10.4647839 101.1071110   7.2088027  80.1438141
 101.7449379   6.9495171  80.8087826 101.2971306   6.6424036  79.3959379
 103.2038689  17.3124933  77.4784851 103.1282806  17.5573862  78.4007359
 102.9269028  16.3966691  77.4503851  46.9719744  23.7462115  67.5824022
  46.1700106  24.0648150  67.9966211  47.5390530  24.5158815  67.5348282
  91.6111565   8.4785676  88.8341427  91.5237617   9.4197595  88.6833000
  91.5850449   8.3851671  89.7864151  99.6000434  62.7186252  32.8463566
 100.5404378  62.6902707  33.0226814  99.4183780  63.6404200  32.6632702
 109.3019439  82.6593835  29.6706021 108.6587334  81.9510753  29.6990502
 109.6678878  82.6862605  30.5546772 107.8715659  55.3669426  23.1930458
 107.4394704  55.6648323  22.3925507 108.0349351  54.4355334  23.0446541
  11.0019686  49.1963528  17.0435536  10.0492098  49.1048909  17.0548832
  11.2170508  49.5684023  17.8988564  87.3361111  87.0580394  27.2359287
  86.9408131  86.1916168  27.3322880  88.1025124  87.0367129  27.8090012
  11.7204573  47.7541329  40.2208054  12.1025088  46.9581271  40.5904591
  11.1291888  48.0746562  40.9019005   1.7751458  49.2776434  10.0891030
   1.8577769  48.5097156  10.6545174   0.8313515  49.4159104  10.0093472
  75.4495645  70.3381224  20.0172531  74.8328019  71.0685833  20.0648319
  76.2615443  70.6858320  20.3860581  84.2753220  24.7317004  77.9264784
  83.3740616  24.4306755  77.8109646  84.4278240  24.6747708  78.8697386
  97.5021648  34.5102930  83.8786316  98.0932617  35.0898218  84.3592358
  98.0541801  33.7770557  83.6068344  64.1423750  14.4586170  91.2023449
  64.7222662  13.7630355  91.5123749  64.4693041  15.2508056  91.6287041
  83.3700038  67.5480433  10.6144535  82.4563599  67.6291711  10.3407776
  83.5666228  66.6160781  10.5195057   9.8365118  89.6436365  48.8505947
  10.4702380  90.2989490  48.5587418   8.9853384  90.0668151  48.7380707
  13.2841303  96.5327151   7.5998985  13.8731482  96.8880351   6.9342816
  13.7613585  96.6381629   8.4229195  75.8553387  77.7399714   7.3301804
  75.0465084  77.2539289   7.1695912  76.0126282  77.6397116   8.2690346
  58.8021517  30.3893065  77.5593281  59.6007824  29.8767900  77.6848173
  59.1036797  31.2122965  77.1746254  45.4888299  20.5043394  19.1133320
  44.9405053  21.1720211  18.7013065  45.3755620  19.7288305  18.5637962
 106.1360217  82.4330242  14.7862541 106.8435813  81.8346865  14.5462811
 105.5962993  81.9325311  15.3981602 110.2232934  86.8454630  12.5970852
 110.2372838  86.1714203  13.2765686 110.7988025  86.5063984  11.9114792
   9.5419886  53.8334170  26.8062222   9.3519309  54.7394487  26.5628826
  10.2607539  53.8999922  27.4348461  50.4643633  63.4208126  18.2625878
  51.1120703  63.8721807  18.8038647  50.0907710  64.1090591  17.7121555
   6.7232802  71.4885349  10.1504433   7.3997691  71.9800277  10.6163037
   6.4576628  70.8047850  10.7653916   6.2736323  69.7511704  28.1429016
   7.2134974  69.5698423  28.1453335   6.0276129  69.7527559  29.0679466
  11.2526610 100.3582270  28.5810482  10.9370615  99.5296557  28.2203591
  12.1484854 100.1714690  28.8618576  85.3950214  38.5244107  81.9686890
  86.0472488  39.2208624  82.0447540  84.5583153  38.9614964  82.1271515
 103.7075806  56.5432835  69.4186020 103.8707542  57.3834467  69.8472309
 104.5447254  56.3135576  69.0153217 100.9430409  89.7225673   2.3518955
 101.1420108  89.5418341   1.4332115 100.7649995  90.6627042   2.3779308
   0.9176352  34.1387243  13.5908806   0.3021004  34.0871115  14.3221104
   1.7768862  34.0061362  13.9912998  20.4673579  93.9712794  12.9621899
  21.2258723  94.1557105  13.5161507  19.7534563  93.8107712  13.5792935
  12.3867609  72.7833910  10.9986031  12.4268820  73.4977753  10.3627789
  11.8098071  72.1352489  10.5945503  45.2802995  -0.0026243  54.7006523
  45.4941896   0.4428846  53.8808930  44.8859170   0.6772835  55.2469265
  65.3853419  34.2845101  29.4338905  65.7713034  35.1366158  29.2309582
  66.0442831  33.8449867  29.9713337 106.7590667  90.0038488  26.7191422
 107.1411277  90.6523044  27.3105538 106.6396142  89.2250092  27.2626221
  98.8193227   5.8385641  32.3824894  98.0397488   6.2226183  32.7837383
  98.5049130   5.0337631  31.9705784 112.1686841  63.7041039  67.9970181
 111.4798213  63.5493727  67.3506748 112.6104833  64.4962747  67.6912319
  60.9781888  18.2679445  19.9282086  61.3197664  17.8607113  20.7242787
  60.9538511  19.2034799  20.1292336  55.8517030  17.5170834   7.4859440
  55.4990629  17.3307592   8.3560955  55.8996156  16.6618330   7.0587551
  99.0890026  19.6239042  78.9812183  99.1072273  19.5733750  78.0255270
  98.9590740  18.7194741  79.2664528 110.2609301  94.9634726  17.2414314
 110.8231116  95.5732281  16.7635452 110.1674796  95.3544695  18.1101238
  82.8180599  41.3563824  86.4863873  82.8281498  40.6601334  87.1431732
  82.6691055  42.1574163  86.9887733 108.4336758  74.4664056  21.3907730
 107.5742341  74.5244367  21.8081677 108.9980937  75.0241430  21.9261181
  88.0891991  25.2213550  86.7099667  88.5358524  25.6126428  87.4607277
  87.8285122  25.9679103  86.1705971  72.0752573  25.8345079  65.9850264
  72.3245430  26.5496540  66.5703917  71.1385632  25.9628582  65.8354712
 101.9306708  75.4446967  15.4548371 100.9791804  75.3958924  15.5471050
 102.2649766  74.7962697  16.0745251  91.1962558  57.4428655  12.8969681
  92.0147420  57.1623634  13.3063996  90.9382964  58.2233496  13.3874142
 107.2596264  41.3891602  77.6410294 106.9027805  40.8550787  76.9313478
 106.5081692  41.5703249  78.2055855  76.3380957  35.5060506  82.3398304
  77.0817327  34.9430299  82.1247864  76.2917376  36.1290312  81.6145897
 106.6736889  43.7604237  88.2292366 107.1215725  43.3285761  88.9566612
 106.4068508  43.0441046  87.6531124  25.5697825  71.4417191  16.7821324
  24.9942591  72.1244962  17.1268379  26.4205267  71.8703170  16.6884911
 108.9810181  59.1648300  21.0817635 109.8197461  59.4856687  20.7503521
 109.1772176  58.8481314  21.9634926   1.6481736  89.3471034   6.9955933
   1.6851094  89.5730360   7.9250157   2.5624611  89.2155797   6.7445671
 105.5601025  14.1221714  84.7767830 105.1082993  13.6169577  84.1008663
 105.6865501  14.9865007  84.3854046 112.5254775  77.8993900  23.1531727
 113.4520341  78.1396515  23.1540787 112.2238637  78.1116612  22.2698795
  97.6897908  63.9166493  19.8323166  97.8700114  64.5934649  19.1798889
  98.1247235  63.1345816  19.4925606   2.6960089  74.8973424  13.2760727
   1.8488886  74.9605377  13.7172424   2.9752114  75.8058317  13.1623852
  81.0719348  56.1135228  13.0612385  81.8843366  55.7043111  12.7632820
  80.4940081  55.3781537  13.2648670  41.8734744  84.1316111  30.2577507
  41.1450674  84.7163517  30.4668724  42.2513201  83.9061935  31.1078369
 100.6239367  93.8118393   7.2660076 100.7336856  94.0220387   6.3386357
 100.0569583  94.5053704   7.6033222 102.4445296  79.9930937  16.0264885
 101.6638947  80.3778703  16.4249623 102.2451449  79.0590842  15.9624302
  94.5252895  55.6119108  80.9051704  94.3089676  55.3822803  81.8088913
  94.5256138  54.7758293  80.4391193 109.6576739  96.8695004   9.1314613
 109.5741893  96.4089854   8.2964813 109.1834689  96.3207181   9.7561180
  81.1148930  72.7130461  86.8410778  80.7243347  73.5569859  87.0679569
  81.3555145  72.3264122  87.6830101  90.3958416  18.3968079  89.0224361
  89.5404339  18.0587566  88.7574100  90.2274704  19.3054688  89.2718792
  22.0137122  92.0095284   5.3331005  22.4688723  92.5143225   6.0070717
  22.3433115  91.1170990   5.4387581  54.3274549   7.7741272  29.7282421
  54.8289445   8.5814125  29.8423874  54.1702512   7.4618132  30.6192982
  64.5069218  78.4410191  63.1776142  65.0060606  77.8977585  62.5677347
  63.7027502  77.9465437  63.3358383   1.0120346  36.6261411  85.0798225
   0.4631759  36.3792920  85.8241653   1.8582203  36.8469405  85.4689980
  18.1626513  91.6296680   8.0050385  18.3026316  91.0349209   8.7418663
  17.2117808  91.7260916   7.9523670  19.1960051  82.7047713  13.5076248
  18.3129790  82.4167640  13.2762348  19.1033652  83.0819399  14.3824970
 104.0525246  92.5017626   6.2866795 103.7985230  93.3458502   5.9135353
 104.9735499  92.6117737   6.5229904  57.9101467  35.1762033  64.2183113
  57.3312140  35.4877782  63.5226202  58.4227324  35.9457302  64.4659376
  20.4396822  63.2407064  22.2645104  20.4854395  62.7509244  23.0856335
  21.1504939  63.8787992  22.3263085  91.9710780  58.4794403  16.7188179
  91.6993857  57.5713037  16.8518650  92.1616937  58.8038118  17.5989735
  95.7026005  55.9383154  63.5127687  94.7525787  56.0508966  63.4811735
  96.0276985  56.7528486  63.8962746 106.5412141 105.6754572  28.7705338
 106.8545152 106.2249692  29.4889462 107.1996451 105.7806809  28.0837834
  72.3183823  13.1140912  85.7679272  72.1738052  12.4592996  86.4509869
  72.4287891  13.9368951  86.2444115  62.2941831  11.9158012  23.2152283
  61.9626096  11.7171699  22.3395359  61.5627626  11.7157156  23.7993633
 109.6804333  45.1056814  91.7354298 109.2485237  45.8129883  92.2143936
 109.1955662  44.3182039  91.9824409  18.1074861  16.2072212  26.1604130
  18.2964757  15.8186895  25.3062737  18.1617645  15.4746181  26.7740833
  -0.3135011  85.0150378  24.3473637   0.2711871  85.7277734  24.0897190
   0.2546456  84.3901594  24.7978890  64.9337724  16.2310821  30.3858387
  64.5191816  17.0300991  30.0603878  65.8214238  16.5007574  30.6215965
  10.6984045  92.3841603   8.3146870  11.5618231  92.7845914   8.4166157
  10.1689341  92.7765758   9.0088856 105.4828788  88.8108141   4.9390423
 104.6951772  88.9690549   4.4187271 105.2215958  88.1417329   5.5717289
  66.2319279  34.5203829  92.4543095  65.3264189  34.8179126  92.5424194
  66.7495775  35.3255367  92.4533749  16.3541987  77.4867661  30.7735359
  17.1040060  78.0509789  30.5846226  16.2278082  77.5650032  31.7191231
  20.1368430  81.3804014   9.4716847  19.5700457  80.7515795   9.9183952
  20.7619479  80.8390577   8.9895737  92.9533577  64.2034721  75.0586367
  92.3534298  63.6595869  75.5690479  93.8242054  63.8772011  75.2853680
  54.2731192  96.8180115  27.5318920  54.3528178  96.5889914  26.6059220
  53.4150031  96.4807351  27.7890408  86.6355705  51.2987280  91.8850422
  86.8779182  52.2022772  92.0877838  86.8608093  51.1919641  90.9608650
  14.3223288  71.0210104   5.2441704  14.5064356  70.4316242   4.5127594
  15.0574114  70.8949978   5.8441841  85.4198981  75.4217083  17.2149479
  85.8260346  74.9987013  17.9714882  86.1518956  75.8112319  16.7367375
  95.2040577  16.4844120  83.7193489  94.8331833  15.6105208  83.8418198
  95.9905148  16.4894581  84.2649555  69.9697638  53.7535000  86.9526291
  69.1790581  54.2393541  86.7181873  69.6465683  52.9162455  87.2854614
   2.9658940  53.8297460  24.7340786   3.1343272  54.5095952  24.0816509
   2.4781277  54.2770320  25.4256355  46.9611406  91.1187268  74.2522955
  47.0709371  90.4977298  73.5321951  46.8663835  91.9689859  73.8229799
  34.0685656  65.8559890   8.6362660  34.1821673  66.7756398   8.3963310
  34.9359038  65.5758281   8.9286053   1.4038136 105.9186442  17.3303711
   1.9703534 106.6876204  17.3931038   2.0059159 105.1749260  17.3546898
  95.0847817  68.3202810  10.8548939  94.2464829  68.5509164  11.2552559
  95.5022908  67.7395315  11.4910137  29.2853739  77.0753605  15.0693905
  30.1445963  77.1361239  14.6519196  28.6916354  77.5146325  14.4604981
  72.7596045  16.5150285  68.7695312  73.2231855  16.2316084  69.5575666
  73.2769918  16.1601675  68.0466127 112.9862643  96.4067824  23.6282837
 113.2256938  95.6002648  23.1717407 113.6479569  96.4994795  24.3137085
  99.5472098  35.9462686  15.6349384  99.2525388  35.8378203  16.5391743
  99.4603301  36.8843551  15.4655945  90.3573752  79.2829211   4.3605625
  89.9939681  78.9309247   3.5479939  91.0563374  78.6722715   4.5946324
  40.7138348  49.9285746  85.5278015  40.5271435  49.0834188  85.1190376
  40.1173544  49.9700785  86.2752724  25.5126669  93.2616885  29.2373860
  25.5899050  94.0812476  28.7489235  24.6030619  92.9920156  29.1104519
 104.1193057  80.2538879  26.2135136 103.9301158  80.8608587  25.4979527
 105.0592614  80.0869925  26.1438191   6.7848780 103.1436617  25.1209080
   6.9373038 103.8232310  25.7775509   7.2968008 102.3952229  25.4274952
   7.9430964  87.9550989  23.7478554   7.3547842  88.3082016  24.4152653
   7.8283789  88.5360987  22.9958450  95.7127094  68.2432175  45.3997421
  96.2774563  68.0352354  46.1440754  95.0848007  68.8776302  45.7454109
  28.6507371  23.5315353  57.3076069  29.0699390  22.6712877  57.3294079
  29.0932849  23.9956886  56.5970146  18.2434752  60.8538367  17.9542744
  18.3930972  59.9850793  17.5813019  18.2001879  60.7047780  18.8988030
  34.5166686 103.4788687  10.2297985  34.8864844 104.1184504   9.6211922
  33.9392855 103.9920981  10.7950031  96.4221860  98.6701233  26.6101277
  96.0270501  98.7831910  25.7456600  96.3409377  97.7334864  26.7899620
  83.3706189  68.4728177  13.4685623  83.7892295  68.0328567  12.7286732
  82.4676038  68.1555743  13.4561550  57.2411969  19.9446279  19.3458664
  57.8239206  19.7150976  18.6220085  56.3665441  19.9491627  18.9570248
  77.6130581  15.5226994  75.5148363  77.9568863  15.5084443  76.4080429
  78.0970478  16.2266791  75.0830984 112.1394587  88.2589943  18.0935394
 111.3902188  88.6972864  17.6900875 111.8769885  87.3402913  18.1511700
  52.7511743   0.9575350  61.2274658  52.8641561   0.0166637  61.0924732
  52.3275235   1.0275919  62.0829403  34.2136671  37.0858855  24.6837341
  33.6881926  36.7848499  23.9424622  33.6052039  37.0900948  25.4226410
  26.5264085   7.2304279   4.0289128  26.8603090   6.3525898   3.8441384
  25.7664684   7.3234636   3.4543907  94.6584941 100.1113017  28.6945355
  94.8564816  99.5547946  27.9413235  95.3958894  99.9791653  29.2903721
   5.2226641  84.3867047  15.1001179   4.8769762  83.5532172  14.7807038
   5.0997832  84.9927361  14.3694603  70.2129507  37.1673608  83.5104084
  70.7186842  36.3858104  83.7332249  69.5939922  36.8700576  82.8435326
 112.3016501 104.9030001  15.4601967 112.7869464 104.1414387  15.1428044
 112.8536845 105.2674849  16.1520302  21.1349490  86.5188344  12.4036896
  20.9657481  86.7515667  11.4907658  21.5892508  87.2801001  12.7646935
 112.5324917  27.9667950  85.2916050 112.7402306  27.3432374  85.9874916
 112.8778172  28.8018441  85.6073284  82.9871941  17.4811578  92.0436573
  82.3418045  17.9264355  92.5926971  83.7844276  18.0019128  92.1408939
  15.5574706  93.1434996  28.6869156  15.4298785  92.7684195  29.5582688
  15.0442412  93.9514191  28.6964237   9.7645762  86.1686046  19.8319256
   9.7096159  85.5864818  20.5897724  10.1735213  86.9649632  20.1707661
  17.5601389 102.0236762   3.9490616  16.9638827 102.1433575   3.2098877
  18.4343150 102.0848973   3.5639774   7.2919085  88.1463559  48.4548962
   8.1545355  87.7744277  48.6386883   7.3815348  88.5422809  47.5880444
  30.0205042  61.5402765  19.7949230  29.4246199  62.2536213  20.0235951
  29.4449713  60.8247281  19.5247566 103.3313942  33.8248467  76.7535973
 103.3725166  34.5521832  77.3745012 104.2463779  33.6346245  76.5465927
 108.1397391  98.6057980  40.1283562 107.3663331  98.6557372  39.5665848
 108.4089709  99.5166905  40.2467644  24.8491290  92.3468573  12.4589646
  24.2849162  91.5753133  12.4078190  25.3622916  92.3222883  11.6513264
  53.6817888  21.8996746   2.1452248  54.4632295  22.1179420   1.6373360
  53.0498365  21.5957672   1.4936840   0.3263809  44.3487740  72.3275709
   0.3867771  43.7801027  71.5599775  -0.0149678  45.1755857  71.9868422
  75.7111168  54.2823839  80.1887703  75.5877781  53.5510969  79.5835924
  76.4504480  54.0180969  80.7362843  10.7910968  51.2796926  65.0771475
  10.7213070  50.5631018  64.4463921  11.0136177  50.8506870  65.9033871
  38.9996722  87.5906618  26.0735333  38.8460448  86.9188888  26.7378723
  38.2679751  87.4961622  25.4636776  10.1650287  24.3051267  91.7643833
   9.9805976  24.5500469  90.8576107  10.2644970  23.3534217  91.7399216
 112.8151990  64.1806300  30.6692612 112.9301072  64.7979732  31.3916981
 112.4412251  63.4002043  31.0783016  46.6209128 106.8149741   6.9057476
  45.9922697 106.5206511   6.2466442  47.4770262 106.6510756   6.5102303
  22.7789309  81.6312678  20.9084999  23.4329512  82.0634444  21.4577782
  22.5037768  80.8692677  21.4182865  99.3440343  91.8290813  20.9620392
 100.2368499  91.7180283  20.6352722  99.4540215  92.1933372  21.8403637
  17.8256991  56.5594907   1.6773712  18.7350848  56.7814858   1.8772900
  17.8585627  56.1848248   0.7971489  72.5561384  17.9482967  24.0993130
  73.3991769  18.3809549  24.2346680  72.5634054  17.2126657  24.7117054
  60.5499983  58.2205439  87.2646427  59.7367811  57.7164698  87.2932243
  61.2081242  57.6348400  87.6388741  50.8671048  15.5966169  40.7050907
  51.1283544  16.2519104  41.3520634  50.2138379  16.0408337  40.1645958
 102.4762344  45.3269482  75.0312281 103.1338501  45.7701635  74.4951963
 102.4173260  44.4470167  74.6590948  37.7416422  93.8735564   5.6101048
  37.5806906  93.8958533   4.6667969  38.5835268  94.3156035   5.7199394
 104.1543771  87.2948368  18.3852875 104.6998835  87.8631146  17.8414833
 104.6004582  86.4480813  18.3694851  77.6377106  97.7858925  56.8835068
  76.9668818  97.8635025  57.5618839  77.4471617  98.5001278  56.2754059
   9.8691084 100.0857480  11.0517037   8.9741614 100.3531010  10.8423435
   9.9528315  99.2111046  10.6719410  47.5007680   2.6451618  11.2654411
  47.0368436   2.0228702  11.8255722  47.5405458   2.2150452  10.4112446
  60.0616315   0.2841646  22.9535114  59.3530896   0.8593256  22.6647484
  59.6422723  -0.5666798  23.0817234  88.2763767  38.0982041  87.4854946
  89.0488338  37.6994801  87.8861904  87.8790569  38.6108661  88.1894493
  50.4016116  81.9658740  31.6631424  49.7156050  82.5956042  31.4416229
  50.2927496  81.2593181  31.0266220  99.2539931 105.9531958   6.8173515
 100.0986052 106.3987668   6.7516243  99.4207097 105.0729306   6.4803517
  11.0700800  94.8484595   0.2764523  11.7561629  94.2717488   0.6125080
  11.0701563  94.6954663  -0.6684387  14.6706489  10.4773123  51.5938103
  13.8409284  10.8940775  51.8264115  14.8223785  10.7365353  50.6849587
  13.9401343  77.0013268  23.6628258  13.8047602  77.1025188  22.7206623
  14.8782923  76.8343122  23.7534153  44.9876120  67.5999041  28.4783089
  44.5337202  67.8718133  29.2759812  44.3074992  67.5973995  27.8047573
  46.8970536 100.4468120  80.9618187  46.7921876  99.6511889  80.4400730
  47.3504590 101.0567833  80.3799343  17.0504763  90.6384976  31.3029205
  16.5003493  91.4211447  31.3354027  17.5126460  90.6356413  32.1411431
  67.7009919   5.5513699  41.8175423  67.4400094   5.0244600  41.0622322
  67.3922303   5.0539143  42.5747978  67.0231012   2.3816378  15.0246060
  66.1881879   2.2440750  14.5771420  67.0232728   1.7391617  15.7341587
  62.0105841  90.8793933  15.3882801  62.0297816  90.5784304  16.2967312
  61.8569567  91.8220694  15.4514610  62.0112375   6.2521345  71.6753781
  62.3379091   6.9780380  71.1438000  62.0661405   5.4897005  71.0992634
   0.4811957 102.7825530   8.5060513   0.6849768 101.9622405   8.9552605
  -0.3910921 102.6434023   8.1372940  89.4882107  69.2153740  83.9224148
  89.4093323  70.1649809  84.0133190  88.6203194  68.8803005  84.1476536
  70.9521104  75.4281290  15.0137913  71.1045695  75.7848866  14.1387379
  71.7754985  74.9975355  15.2436936  39.2056563  87.1735437   5.3242790
  39.0549090  88.0908282   5.0960457  40.1422408  87.0410521   5.1776611
  12.8026583  71.6728706  21.4688027  13.1450083  72.2958357  22.1098530
  12.0048907  72.0847697  21.1369431  23.4733679  94.1167624  32.6378834
  24.3213751  93.9264185  32.2367775  23.0071166  93.2809765  32.6203453
  65.1172689  10.1821024  33.9097035  64.9313119  10.9649546  33.3912480
  64.6269658   9.4846088  33.4745705   5.2991249  66.3292122  47.8202581
   5.5329181  66.8280411  48.6030388   4.5602657  66.8070984  47.4435186
  32.8591207  19.4219000   6.6332924  33.2225755  20.1946718   6.2008965
  32.2943691  19.0211088   5.9724915  62.6645425  22.5150043  35.7624638
  62.3449758  21.7958338  35.2175820  63.2713464  22.9926617  35.1968968
 107.1418285  51.9055033  81.5724754 107.7622128  51.5986156  82.2336769
 107.6905727  52.1747303  80.8358383  92.8929854  70.9957118  22.1612370
  93.0618716  70.0656087  22.3116314  92.2769738  71.0119088  21.4287769
  38.8418153   5.5331451  36.9586193  38.3592466   6.2744791  37.3243820
  39.6607593   5.9136183  36.6411316  23.7050917  90.1062925  20.5243981
  23.4917452  89.8335226  21.4167607  24.4732859  90.6687672  20.6230747
   7.9295924  82.7427847   1.3504421   7.4524119  83.5381873   1.5868008
   7.3238184  82.2576172   0.7901871  47.1061948  18.5956556  37.0002186
  47.9994062  18.5801823  37.3439610  47.2083333  18.4421427  36.0609448
 108.0735446  90.3948553   5.4918873 108.5770131  90.0192578   4.7696125
 107.1647549  90.1695163   5.2929985  27.4533369 102.0602353  35.1002133
  27.0095637 102.2431214  35.9283840  28.2074263 102.6497824  35.0972759
  98.7327194  19.4520104  76.4605236  98.0728817  18.7738824  76.3156366
  98.3239555  20.2562022  76.1404896 104.4876481 101.1791117  22.4820625
 103.7842704 100.5802901  22.2312653 104.9550248 101.3549979  21.6654503
 112.1271849 101.5964921  11.1607372 112.2270919 100.6469185  11.2282765
 113.0080605 101.9410498  11.3075840  78.3087400  43.4311373  24.2866909
  78.9366391  44.0967161  24.0056812  77.7980474  43.2366640  23.5008156
  96.6496802  77.5141914  35.2736485  96.9121934  76.8652351  34.6208298
  96.6186810  78.3403046  34.7911465  70.0436163  55.6618977  90.0259018
  70.6378365  55.0921345  89.5375347  69.8638916  55.1832342  90.8351040
   8.2244875 104.8819191  36.1407005   8.5153964 105.3963931  35.3877556
   9.0346148 104.5943625  36.5616905  67.3354104   8.1642277  23.4457981
  67.8975347   7.7235920  22.8085434  66.5344480   8.3636600  22.9611313
  58.3042288   2.2703318  83.9677429  57.5101852   2.7289781  83.6931992
  57.9863214   1.5257254  84.4783497  43.7793639 102.5473483  32.7570259
  43.5632422 102.7561743  33.6658203  42.9516222 102.6430018  32.2859299
  16.5466835  54.2440319  92.2635937  16.8933632  53.7280416  91.5357208
  16.6277553  55.1524973  91.9731712   2.9759505  49.4189025  67.5114453
   3.3955338  48.9328141  68.2213223   2.3726942  50.0160013  67.9539311
  16.1446574 102.0499213  29.5475208  16.8666270 102.2908909  30.1279652
  16.5699484 101.8008931  28.7269413  63.3577112   2.3482449  35.1496899
  62.9004243   1.7116482  34.6002781  62.6962903   2.6433975  35.7755005
  96.7924405  97.3137743  19.0622914  96.1671639  97.7946932  19.6044838
  96.5415955  97.5248225  18.1629765  74.2979577   8.3930094  22.2429669
  73.9130929   9.2678148  22.1898281  75.1281408   8.5240013  22.7010739
  86.2948278  10.1014788  46.3967430  87.0922139  10.5475981  46.6820252
  85.8656076   9.8348791  47.2097122  12.9919913 103.4828742  35.8722603
  12.4049952 102.7281840  35.8262360  13.1700900 103.7038691  34.9581062
  50.9438089   6.8048126   7.8332722  51.1701825   7.5486977   8.3915150
  50.1121572   6.4863426   8.1842148  53.5198644   0.3355820   2.7878296
  54.3362287   0.2037079   3.2698929  53.0747369  -0.5105370   2.8345883
  68.5422850  49.1080904  85.0448418  68.5099363  48.1844234  84.7957993
  68.0790901  49.5622921  84.3410110  83.7602998 104.1888888   6.1426937
  82.8432704 104.0813334   5.8902657  84.1349078 103.3115752   6.0638344
  70.4243708  27.1996760  88.2222462  69.7561026  27.6428699  87.6995277
  71.2347984  27.6678944  88.0217266  82.0559839   7.5611479  27.0309841
  81.8888238   8.3832151  27.4919521  81.6088823   6.8970949  27.5557339
  97.1568584  53.3795452  65.2348518  96.8308353  52.5507641  65.5856562
  96.8331528  54.0419197  65.8453512  75.2153922 101.7560370  13.6096871
  74.6656800 101.7463095  12.8261387  76.0745192 101.4659245  13.3031475
   7.0632937  93.6327107  30.6663906   6.5933516  94.4572957  30.7906735
   6.5079119  93.1276615  30.0725090  20.2717212   0.6967670   8.5662853
  19.7064737   1.4637119   8.4739792  21.0359767   0.8960182   8.0255043
  46.2180761   9.4013960  25.3285134  46.6494420   8.6043293  25.6364834
  45.2975229   9.2808515  25.5615055  43.0184367 104.9357541  15.5025112
  43.6154177 104.1884453  15.4654228  42.5047305 104.8721344  14.6973526
  48.6931756  16.6684610  12.0034420  48.8862947  16.7192442  11.0672962
  48.3670095  17.5398285  12.2283184  64.2320779  14.2049820  12.1824658
  63.8817743  13.3243925  12.3169148  65.0808576  14.1952259  12.6248562
  99.4962598  96.7431719  16.7323124  99.2705584  95.9832556  17.2688019
  98.9471532  96.6577418  15.9529507  12.2293331  32.0292163  78.2792759
  12.4385978  32.7409029  78.8842058  11.7830421  31.3781142  78.8206863
  97.4201012  37.2944951  85.1330280  96.8483639  36.6818118  85.5955887
  97.2249508  38.1460738  85.5241394  61.0964444   1.1760361  31.3417828
  60.3046277   1.1587221  30.8042252  61.8141607   1.2168056  30.7097542
  37.5630095 105.9600050   5.7991135  38.3450510 106.3525279   5.4111015
  36.8378928 106.3068469   5.2793705  94.5946980  54.6383190  87.6839256
  94.3996906  54.4632435  86.7632961  94.3646717  55.5593443  87.8065205
   6.4911845  97.1676095  12.4071037   5.7505705  96.5612776  12.3983776
   7.1935561  96.6942055  11.9612515  25.4760554  69.7284610   8.2885468
  26.0777285  68.9885516   8.3707535  25.1392462  69.6651323   7.3948013
  83.4677079  11.4275391  41.2443268  83.0288652  11.7073328  42.0476734
  84.0080598  10.6844980  41.5129196  87.8195718   7.0205910  42.3190415
  88.0123857   6.3829786  43.0064308  88.6290601   7.5225193  42.2240364
  34.0918257  68.1694253  31.4979946  34.5067503  68.6421258  32.2195351
  34.0443613  68.8097293  30.7880699   8.9588931  16.6645367   9.2082131
   8.0221799  16.6603786   9.0112888   9.0835002  17.4342472   9.7634232
  99.4715500  75.6240606  91.6024685 100.3196049  75.6261969  91.1585903
  99.2668056  74.6968555  91.7233181  35.0316241  81.5342481  30.1636135
  35.3587058  82.0419986  29.4210255  34.0831664  81.5086324  30.0370705
  85.7704258  33.2796431  77.7586937  84.9260998  33.5376334  77.3888540
  86.3537121  33.2157946  77.0024300  20.7081797  54.5059219  19.2955219
  20.8420660  55.4258024  19.0672123  20.8624747  54.0314824  18.4786141
  36.8849471  65.7262857   9.3504059  37.2028449  66.1494215  10.1479828
  36.6460707  66.4516587   8.7733376  53.4896948  94.3198950  35.2709210
  52.8321841  94.2941887  35.9660828  53.8123991  95.2210171  35.2796757
  39.9941018  22.6790983  63.2896912  39.8778728  23.5209352  63.7301838
  39.1908840  22.1952564  63.4819710  88.8680172  24.3174672  79.3795729
  88.9763355  23.6628008  78.6897087  88.5983086  23.8137770  80.1475430
  83.6847878  35.0404763  76.7133045  82.8128910  35.0142121  77.1074438
  83.5416412  34.7969222  75.7987452  89.2653465  27.2355127  82.5391102
  88.6041737  26.9210243  81.9225121  89.9806976  27.5473499  81.9848061
  89.2142200  67.4936152  72.8042126  89.5912075  66.7180252  73.2196331
  88.5508347  67.7983618  73.4233141  61.9673300  46.2445974  84.7789097
  62.4543810  46.2729359  83.9553833  61.9502258  45.3171921  85.0152683
 103.3774854  87.9941328   7.8160679 102.7458573  88.5248716   7.3306858
 103.8708163  88.6267788   8.3381951  91.6353658  15.1259214  41.9842541
  92.2074941  14.6707088  41.3664543  92.0276788  14.9594290  42.8413403
  58.3720926   5.8957273  18.7702667  57.9059461   6.6996176  18.5407078
  57.7589658   5.4134066  19.3249523  69.2535451  12.1211416  24.9620163
  70.0473073  12.5723535  25.2493775  68.5522607  12.5173647  25.4791653
  22.7334120  91.4716251  33.8583767  22.5341990  90.5470593  34.0057671
  23.6897185  91.5127380  33.8533318  59.7972730  17.0434172  27.3515999
  58.9587644  17.1531851  26.9031727  60.2684167  16.3985140  26.8240082
 100.9018517  49.7931767  56.0721588 101.8114567  49.5659304  56.2650537
 100.4462814  49.6874428  56.9073248  48.4985735  82.3371894  18.1982052
  47.9016497  82.8938372  18.6982643  49.2295649  82.9123147  17.9721081
   1.2822296   4.9206534  87.0977783   0.9789516   5.7040071  87.5567055
   1.4938881   5.2266145  86.2158394  83.6667589  26.7840368   6.3893139
  84.2746309  27.2074968   6.9954502  82.8047899  26.9139273   6.7847645
  91.2954807  71.5098047  90.4142475  90.6651211  70.7952118  90.3234768
  90.8401871  72.1650934  90.9429550  97.1691895  80.5680561  75.0270939
  96.8523502  80.8243561  74.1609812  97.4395466  79.6557522  74.9229193
  59.3868497  16.5153248  15.9211552  59.0249685  15.7131082  16.2976181
  60.2759603  16.2768824  15.6587422  24.8609354  96.4941914  50.6588566
  24.0662768  96.1962111  50.2161991  25.2869036  95.6893570  50.9538662
  29.0552428 106.5208323  66.4900410  28.3908942 107.0757802  66.0814964
  28.6514571 106.2249405  67.3058998  47.1376565  69.7065527  26.2953674
  46.5036920  69.2932875  25.7092487  46.9101671  70.6361467  26.2771523
  70.2123714  87.4181159  27.0081532  69.3307520  87.6042826  27.3311340
  70.7846857  87.6065118  27.7519238  54.0319494  31.5294249  25.1198971
  53.4047368  31.9413263  25.7141792  53.5482934  30.8025724  24.7274506
 104.6685937   2.2816832   2.5001347 103.8385537   1.8409044   2.6817429
 105.2555326   1.5802271   2.2178375   4.9892856  25.3794789  87.7060032
   5.6397678  25.5421519  88.3891106   5.0840999  24.4491673  87.5016499
  79.8402456   3.0828030  22.9684078  79.6697667   3.8867647  22.4776852
  80.2540067   3.3800108  23.7787831  66.5303373  28.8086510  91.1596775
  66.8374920  28.9138460  90.2592182  67.2904587  29.0266848  91.6990376
  89.2026711  48.2652664  88.9610863  90.0776386  48.2907391  89.3484211
  88.6826420  47.7500153  89.5777893  43.4566214 105.5365450  31.5379536
  43.3589175 105.7051785  32.4751007  44.1899302 106.0903962  31.2701046
  82.8780079  45.2687407  85.4249859  82.7608776  44.9236393  86.3101006
  83.3692074  44.5877314  84.9654484  75.2396825  30.3993303  21.8979084
  75.5705312  30.0624830  22.7305615  75.0147584  31.3115389  22.0809853
   0.5864289 100.2262003   1.5079796   0.5761530  99.8515160   0.6272137
   1.0791209 101.0416491   1.4156258  23.1294062  98.2507212   4.6109116
  22.2614100  98.5288031   4.3185436  22.9908946  97.3761590   4.9744808
  32.1852782  83.8317354  16.2796414  32.6336100  83.7993343  17.1247303
  31.2966635  84.1181381  16.4907562  26.3330557  76.4902647  36.7742932
  26.4594271  75.9965618  35.9640324  25.4686549  76.8901594  36.6787541
  99.1242743 105.9387906  37.3934567  99.3277026 105.0674040  37.7333557
  99.8785926 106.1658843  36.8497002  72.1687272   2.5758106  10.9614098
  71.6892675   2.9867346  10.2420342  71.9801000   3.1271774  11.7207825
  35.8956197   5.3788025   7.1725571  35.5083469   6.0796482   7.6970207
  35.7961849   5.6740457   6.2674725 105.2392864  68.3760452  81.6912842
 105.0899029  68.8061333  80.8493042 104.6050835  68.7809849  82.2829342
  91.0589218 100.3255272  85.3244114  90.9553528  99.4258022  85.0145531
  91.5168858 100.2396584  86.1605549  34.0267947 104.0945561  50.8607781
  34.9433520 103.8701327  50.7001602  33.8187697 104.7459061  50.1909268
  29.4526437  20.1763756  22.7413189  30.0917104  20.8648188  22.5572788
  29.4959262  19.5993549  21.9788181  33.5087350  39.3569261  21.3688099
  33.5964731  40.2591307  21.0612881  33.6538604  39.4106752  22.3134148
  26.6796973  67.1740825   9.4691193  26.4084914  67.6912315  10.2275574
  27.6051428  67.3884840   9.3515789 110.8826400  98.1353934  23.0118858
 110.1337911  97.7276690  22.5768959 111.5862227  97.4914105  22.9313194
  76.4090398  11.3460333  34.5092022  75.6285528  11.8747408  34.6751606
  76.9596341  11.8991644  33.9550125  54.4060472  15.1217014   1.6464340
  53.8712648  14.9921400   0.8632004  54.7598508  16.0060102   1.5512860
 108.5028553  37.9245734  82.8586578 109.0297508  38.7178683  82.7622509
 108.1982708  37.7301598  81.9722748 105.7665634  39.2330813  83.6145782
 104.9438286  38.7661910  83.7606621 106.4302540  38.5441399  83.5811901
  31.6881612  22.9416639  12.1183407  31.1850217  22.1341450  12.0134651
  31.2764791  23.5604174  11.5151035 103.4570980  54.1045475  83.8354397
 103.3198166  53.4739685  84.5423698 102.7321148  54.7234726  83.9224339
  48.4798101  16.3347799   6.5326321  48.2655099  17.1949846   6.8936741
  48.6813882  16.5047008   5.6124508 108.7027264 102.6970768  88.8224316
 108.8968468 103.4632683  89.3623447 108.3279991 103.0587387  88.0193043
  66.3175920  48.3916361  19.2495358  65.5465272  48.0488855  19.7014343
  66.1287072  48.2603914  18.3203804 108.2110647  30.8749372  19.6869290
 107.8144315  30.1349146  20.1465904 108.4648851  30.5196077  18.8351357
  57.6727918   8.5912878  17.5851071  56.9174913   9.1240770  17.8338921
  57.5013593   8.3420164  16.6769707  96.2759113  37.6796913  92.0901871
  96.1423779  38.5319853  92.5049114  97.1805573  37.4494219  92.3018932
  34.7883513 102.7992852  20.6209194  35.2946475 103.5640366  20.8948719
  35.1752284 102.0698912  21.1052143  69.6267560  44.6226580   9.5339310
  70.0721315  45.2361757  10.1182854  69.8762086  44.9057562   8.6542427
  87.8332806  55.2105713  89.1814518  88.5269737  54.7468996  89.6505260
  88.2692528  55.9737730  88.8023853  37.4995473  30.2294523   1.0922730
  37.5351527  30.1694376   0.1376259  37.4927190  29.3195517   1.3893711
  66.8947461  21.9117767  53.4557163  66.8042806  21.5540583  52.5724995
  65.9948114  22.0403368  53.7553990  66.4147758  51.0196638  87.8691196
  66.0633373  51.4625311  87.0967293  65.9782982  51.4439678  88.6078167
  80.6801942  27.0836908   6.3568794  80.5253461  27.3233778   7.2705567
  80.1262620  27.6817591   5.8551800  10.0396301  86.6028309  52.3089886
   9.7138263  87.0596313  51.5334845   9.6320488  85.7378006  52.2663116
  91.0269979  13.3260900  29.2358410  91.8074086  13.8708336  29.3380558
  90.6942991  13.5451729  28.3654701  70.4113344  13.7789566  13.9512932
  71.1978868  14.2346031  13.6513817  70.2697995  13.0916387  13.3002960
  36.5161610   5.5571127  84.4720745  36.6566110   4.7485292  84.9647141
  37.3803759   5.7799673  84.1261005  75.1693678  16.8033147  81.9043541
  75.5194378  15.9385324  81.6902733  75.3403521  16.9058776  82.8405571
  24.9191477  51.7348140  17.7564442  24.4567015  50.9007491  17.6745045
  25.8296969  51.5252645  17.5485336   2.2019007  45.3221930  10.2931416
   2.6170495  44.4666899  10.4026711   1.2669089  45.1280327  10.2273762
  27.1760654 105.7034943  82.9347420  27.4221467 104.9231786  82.4379730
  26.6216897 106.2037356  82.3358631  84.9003220  13.0840528  67.0601130
  84.9337101  13.3069444  67.9903984  85.7538891  13.3511424  66.7190409
 102.4340916  40.2515550  14.1404450 102.8715134  41.0683079  14.3808853
 101.7243720  40.5224032  13.5580647   7.5140479  60.7899488  25.9830868
   6.9128802  61.4373882  26.3513958   7.1995928  60.6521500  25.0895798
  24.2562964  74.6991975   8.6046707  24.3522646  75.3931482   7.9523956
  24.4437411  73.8922293   8.1251919  97.2380447  60.9551716  86.7134380
  97.1762371  60.0101089  86.8522358  96.4857197  61.3158751  87.1826172
  84.7754192  13.9203918  88.8589096  84.1673088  14.4888377  89.3314552
  84.2274666  13.2123077  88.5203838 107.9117776  50.2109529   0.4213249
 107.2381354  50.4227449   1.0675251 108.3595181  51.0416560   0.2610314
   6.5561774  68.4653277   1.7736923   6.3075449  67.7663906   1.1687958
   7.4613574  68.2650883   2.0119965  29.4619467  55.0234380   5.5410206
  29.4805529  55.5662536   4.7528374  28.6214068  55.2261498   5.9516632
  97.7846289  30.1648934   4.7920334  97.0672656  29.6118386   4.4825852
  98.0709315  29.7521646   5.6068432  67.5611210  25.8450723  85.7503128
  67.8171730  25.1787472  85.1125908  67.5625038  26.6639829  85.2547169
  79.4373322  11.6599393  72.7851486  79.4618034  10.7110798  72.9088402
  78.8728952  11.9788051  73.4893990  70.3057003  22.1913481  70.6235600
  69.3526220  22.1770096  70.7111597  70.4620695  22.0671368  69.6874237
  81.6816044  23.7478018  77.6936150  81.2963963  24.0394902  76.8673182
  81.6104603  22.7936101  77.6673985  89.9709559  76.5285428   6.0905850
  89.5001841  76.7478259   5.2865231  90.8769990  76.7820389   5.9143746
  77.1689748  93.6565078  69.2769146  77.0902681  94.3038869  68.5762453
  76.3165425  93.6697805  69.7121382  94.2186213  68.7914164  25.7265007
  95.0049497  68.3163471  25.4577458  93.6843873  68.1359727  26.1750710
   8.6663058  47.4562497  11.3644421   8.4393790  46.7060710  10.8149254
   9.3220713  47.9349042  10.8574116  87.0284318  99.8117424  76.3758945
  86.4569711  99.3256081  75.7814693  87.5283860 100.3944994  75.8043432
  50.5770400  85.9397657  28.6609661  51.2477877  85.2937610  28.8823521
  50.1203062  86.1032231  29.4861328  76.9695044  26.0230255  73.2840252
  77.4931717  26.0566449  72.4834776  76.1614513  25.5811119  73.0232668
  19.0063384  96.5371926  28.3053791  19.8055651  96.5532095  27.7788651
  19.3056967  96.6985734  29.2001259  88.4036685  30.6698878  10.2733719
  88.6255360  31.1967809  11.0410988  88.2362843  31.3113339   9.5828926
  40.2536681  57.1745954  45.2346337  40.9094431  56.5062947  45.4335415
  40.7131770  58.0052037  45.3577912  13.6215784  52.4838814  34.3112671
  13.5790350  52.4405968  35.2665436  13.9549735  51.6263406  34.0472614
  63.1732368  23.2308245  72.7244949  62.8068066  23.6913371  71.9695854
  62.6719904  23.5583568  73.4712934  88.4788799  43.9229870  86.3592720
  88.3201504  44.1941452  87.2634315  89.2299461  43.3321714  86.4147472
  38.1075385  57.8861455  17.2272503  38.3663466  57.6711805  16.3311207
  37.5329974  58.6461432  17.1348488  55.4432013  82.9140217   7.0669853
  55.3484442  82.0347722   6.7006886  54.5471194  83.1927831   7.2555458
  93.9197540  16.8554342  77.2473955  93.8023663  15.9426725  76.9841146
  94.6724701  16.8393028  77.8384876  70.7932281  21.3050485  63.9929867
  70.2007008  20.6356168  63.6509228  70.2298021  21.8836927  64.5067549
 105.1688862  36.4585829  76.7105103 104.6417522  37.2575307  76.7167997
 105.5189228  36.4095831  75.8209562   3.1056835   8.6523229  83.6693859
   3.8602401   8.0922025  83.8514709   2.4309303   8.0505008  83.3551502
 107.0514727  58.3348359   6.4669144 107.3057366  58.9639009   5.7917416
 107.4486161  58.6718173   7.2700035  47.8616240  73.0577357   7.2030461
  47.9720690  73.0822213   8.1535351  48.6439803  73.4894068   6.8598091
  73.8583755  28.4375453  83.1439686  74.0475082  29.1564298  82.5409222
  72.9996204  28.1151223  82.8704548  62.8169011 105.5129831  87.0457840
  63.4109735 105.7264674  87.7653217  61.9543885 105.4542365  87.4567127
  26.6713622  64.5673485  10.3926384  26.8342116  65.3799708   9.9137222
  26.0545638  64.0845711   9.8424446  93.8602687  70.0507088  29.8402989
  92.9654170  70.2982540  29.6074974  94.2680837  69.8151000  29.0069878
   0.6515696  80.5222638  33.0913174   0.8883526  79.9569900  33.8265907
  -0.2512739  80.7841809  33.2716190 112.6247788  96.1270697   0.2067482
 112.3247004  96.9737418   0.5374157 113.5508014  96.2628682   0.0060761
  22.2665122  69.1607220   1.0239422  22.3891165  70.0419636   1.3769447
  21.7220786  69.2875583   0.2469361  46.1861992  14.7000217  71.0343647
  45.7879686  15.4064310  70.5258083  46.9663525  15.0953305  71.4233685
  96.1717796  24.8384619  91.9065666  96.7959213  24.4157648  91.3166523
  95.3332043  24.4228816  91.7057514   0.5024483  48.1306769  12.8328430
  -0.4381130  48.2256086  12.9830563   0.8510449  49.0169121  12.9292786
  93.1412506   7.0726991  91.6457176  92.9240894   8.0048770  91.6565514
  93.5868645   6.9208807  92.4791431  41.5168953  17.8501070  55.6255007
  40.7267284  18.0169201  55.1116562  41.9379330  17.1121323  55.1846409
  23.5572242  78.1456042  79.8108244  22.7025890  77.8634883  79.4848776
  23.5892963  77.8212524  80.7108307   9.0357783  59.9800373   7.1871960
   9.4834807  60.7802959   7.4617493   9.2432501  59.8968042   6.2564671
   1.6762545  70.6309743  16.6237652   1.2609866  70.0661726  15.9720051
   2.5919249  70.6803710  16.3492977   0.1514342  72.5717063   0.5372536
   0.0271609  72.2938020   1.4447510   0.2525189  73.5221179   0.5895149
  16.2419891  80.5878950  87.5700283  15.6327247  80.0664306  87.0474339
  15.7362222  80.8463169  88.3405209  12.6752665  49.3549053  28.4593022
  12.0228770  49.1673313  29.1341602  12.1697142  49.7165520  27.7313816
   5.9225943  66.9403787   5.1126873   6.0250857  67.8748770   4.9325668
   5.8256056  66.5392263   4.2490303  80.7059193  17.9251540  67.9972887
  80.4226017  18.4986866  68.7093401  79.9032307  17.7284980  67.5143337
  70.7442093  27.1539545  83.4525108  70.1571369  27.8631878  83.1906605
  70.1705647  26.3950944  83.5587788  82.2751141  64.0745111  35.9156239
  82.3440982  65.0260038  35.8372891  82.5300837  63.8894899  36.8194973
  33.2534885 106.7973687  88.0935001  32.5259494 107.3732432  87.8583622
  32.8702020 105.9203555  88.1065464  70.4454947  18.3206666  60.4584122
  69.6150351  18.1127012  60.8865690  70.2103472  18.9404202  59.7678757
  11.6532710  45.1137025  13.0502999  11.1068251  45.1534493  13.8351929
  12.5424483  45.2677609  13.3694565   4.1235735  44.1638763  23.1701862
   4.9207594  43.7119926  23.4468186   3.4311058  43.7780548  23.7067139
   6.2428477  92.7738078  19.4634449   6.4935114  92.7560790  20.3870690
   6.0249426  93.6899645  19.2919457 111.4911939  69.5529909  16.3083374
 111.4708901  69.7725256  15.3768742 110.5965901  69.2780728  16.5091717
 107.0118618   3.3954412  86.8271160 107.6646805   3.1927550  86.1570644
 107.1641254   2.7463666  87.5139618  87.8619386  76.5448625  20.5556118
  88.7999774  76.7285211  20.5048096  87.7459336  76.1248310  21.4078724
   0.2583554  42.7577801   1.4936459  -0.4876373  43.3459635   1.6109669
   0.9918644  43.2166369   1.9030964  94.3377495  13.8981354  90.9615040
  95.0390816  13.2690275  90.7924080  93.6435986  13.6531758  90.3496456
 111.3999797  34.1344078   3.0323803 111.7301799  34.8144300   2.4452126
 111.2825156  34.5791252   3.8718235 104.2759086 105.3335078   3.5025990
 103.4159423 105.5257351   3.1287777 104.8628856 105.2980454   2.7473271
  95.5104256  31.3825440  72.6073313  96.0262108  30.6386781  72.2961140
  95.2751827  31.1516500  73.5059881  11.6305350 101.2105644  31.9303584
  11.2844705 101.9036490  32.4925900  10.8860826 100.6270296  31.7837071
  45.2626753  20.6861997  73.0713558  45.0044060  19.7667134  73.0075359
  45.1178217  21.0372043  72.1926928 105.4808235   8.7784100  85.9680176
 104.6032524   9.1486406  85.8730221 105.5710411   8.1822687  85.2245712
  35.3070452  97.2129614  24.2297756  36.1927893  97.2620423  23.8702213
  35.0432303  96.3030131  24.0932953  89.3820953   6.9194430  62.1349669
  89.7787857   7.7855057  62.0411158  89.8336315   6.5289932  62.8832293
   0.6776001  72.5621469   3.3499634   1.0706141  72.4560423   4.2162811
  -0.0055120  73.2207317   3.4758866  85.6866169   9.7520387  74.3017435
  86.0037804   8.9477021  73.8910341  84.9197197   9.9986511  73.7847567
 100.1787281  39.0988874  57.4217892  99.9691391  38.3260274  56.8973923
 100.5397320  39.7240829  56.7932701   3.3897784  38.9573033  25.3027069
   3.4094098  38.0163689  25.4773152   2.5550320  39.2512245  25.6674587
  20.2138712  51.0637696   1.1472523  20.7449820  51.6916744   1.6370403
  19.5427802  51.5978263   0.7222283 104.7997046  41.6360862  16.0906994
 105.6623126  41.2315114  15.9987366 104.8058940  42.3586495  15.4629242
  74.3067694  32.9341698  89.4780731  74.0012932  32.0355129  89.3542385
  74.0690613  33.3819628  88.6661530  72.1572781  49.6169567  82.4681473
  72.7965021  50.3075552  82.2929287  71.8133116  49.8238420  83.3371258
  27.8254511  75.1899154  11.5715229  27.2204783  74.5150454  11.2636387
  27.4229910  75.5248363  12.3728287  16.0393050  69.0307708   9.5973885
  15.2794840  69.1343052  10.1702511  16.7930605  69.1388388  10.1773941
  51.3656381  13.2827932   5.1075565  50.9490350  13.9677221   5.6305802
  52.1399453  13.7040026   4.7343743  43.5290574 100.6926776  71.8993330
  44.4317769 101.0007924  71.8193150  43.2481813 100.9957427  72.7627516
  87.4995136  13.1628275  85.0233746  87.0848465  12.3120928  84.8800850
  86.7695904  13.7613344  85.1822472  16.1161949  44.1609097  88.1104183
  16.8284275  44.4242191  87.5276470  15.4439785  44.8306942  87.9848957
   7.7896453  29.6159816  75.0523472   8.1832935  28.7657738  75.2483654
   8.5318710  30.1780009  74.8299217  82.0020390  31.0922170  80.0412369
  82.8911686  30.7505894  80.1360035  81.7858601  30.9452438  79.1204214
  21.7420580  44.7237749  14.7851860  22.0159152  44.7343756  15.7023155
  22.1300890  45.5143805  14.4102108   5.5165245  11.6795063  77.9858732
   5.4463817  10.7795680  77.6674032   4.9126865  12.1765995  77.4340487
 108.8239048 106.9563587  64.2766476 108.3342645 106.6837137  63.5006618
 108.2386491 106.7635492  65.0091314  84.6822453  34.9688888  68.5800600
  84.5140076  34.6725035  67.6855850  83.9901733  34.5620251  69.1013479
  20.9689238  61.0169334  10.4282105  20.4729845  60.3447993   9.9607575
  20.9001543  61.7942734   9.8739159 110.6998158  38.6925626  69.6890211
 111.2488651  39.0291309  70.3971863 109.8524094  39.1179299  69.8201275
  29.7220328  80.1927145  30.5995857  29.6223738  79.2673142  30.8230507
  30.3046038  80.5407364  31.2746536  28.0430891  68.0253930  14.7665131
  28.7616446  68.0234213  15.3988850  27.8620150  67.0991380  14.6068298
   0.7911064   6.3682318  57.7968311   0.5141307   7.1685582  57.3507404
   1.4357521   5.9764504  57.2076225  40.4077818  63.4780629  10.2211392
  41.0692027  63.2840325  10.8852970  40.7552054  63.0919243   9.4171440
  22.6804354  80.7095821   2.8406059  22.0554354  80.6330521   2.1196663
  23.3905795  80.1120241   2.6063931   2.3744013  87.0032389  10.3355896
   3.3292391  86.9362361  10.3304016   2.1834090  87.6506002  11.0143196
   0.0879958  87.4282248  22.0417416   0.4861548  87.2739513  21.1850559
  -0.2929113  88.3038051  21.9746411   7.2577335   8.0376530  84.0806770
   8.0578662   8.0583036  84.6056366   6.9092704   8.9271879  84.1400909
  27.8732779  72.9632123  32.2792732  28.5000040  73.5543664  31.8621552
  28.3101656  72.1115334  32.2783100  78.5701609  20.6743026  87.5572777
  78.3289576  21.5005493  87.1385098  77.9845762  20.6081820  88.3115673
  80.0377941  21.8075371  53.6439753  79.8638201  22.7328396  53.4714174
  79.1709280  21.4182091  53.7588787  21.4383128  95.3812773  10.3301537
  21.2719252  95.0092394  11.1962616  21.9739916  96.1559088  10.5011093
   2.5269606  76.9306715  42.8192913   2.4109795  76.7284544  43.7476742
   1.7338135  76.5964229  42.4004566 111.2811565  32.8102732  72.5101948
 111.7800045  33.3071756  73.1586361 111.9146633  32.1952033  72.1406126
 105.4893970  21.3818789  78.2571411 105.9505749  22.2171211  78.1802273
 105.8267403  20.9955549  79.0653419  18.4420919  91.9009686  79.7917318
  17.9906415  92.7393485  79.6940374  18.1910800  91.4017821  79.0145350
 112.2929098  19.0415317   8.5120594 111.4669015  18.8496763   8.9560616
 112.0313646  19.3926985   7.6608860   8.7294914  12.1208322  61.5743399
   7.8524829  12.1403730  61.1913157   9.0169098  13.0337691  61.5613699
  53.5538199  95.9905417  24.9359905  52.8364184  95.6118853  25.4441178
  53.7923911  95.3056796  24.3112671 106.4249992   8.9843088  72.7171850
 106.1485863   8.5115242  73.5022354 105.6072330   9.2184961  72.2782612
   7.1241905  21.9637775  77.3600388   7.0748760  21.0587096  77.0523739
   7.8175117  21.9549918  78.0199337 102.5015926  73.3155107  83.9287472
 101.9940948  74.1255045  83.8779545 103.1036663  73.3631325  83.1861401
   7.5254538  87.4309165  15.3238785   8.3587649  87.4321301  14.8528969
   7.4994566  86.5805061  15.7624638  15.8058264  94.7408040  14.7465527
  15.7359030  94.9971325  13.8269627  14.8990443  94.6579392  15.0417149
  43.6776164  54.7962790  37.1010506  44.4254305  55.0689809  37.6326859
  44.0342143  54.1358937  36.5069496 104.1965580  33.8272166  82.7149677
 103.5210037  33.4709549  83.2919693 104.1590214  34.7729802  82.8576374
  95.7644463   7.3089933  86.2096214  94.8759270   7.6436150  86.3312340
  96.0284138   7.0086968  87.0793247   8.0366805  85.1901729  25.9960758
   8.6764338  85.8313115  25.6864273   8.2960131  85.0102718  26.8997490
  14.4762900  97.1026595   9.9600136  15.1209929  97.4132569  10.5957234
  14.0460970  96.3666422  10.3952610   1.5533593  66.0066397   8.0915081
   2.2592404  65.3818352   7.9254353   1.5387299  66.1039658   9.0436375
  83.8708211  63.4314520   2.7288544  83.3717490  64.1746027   3.0677998
  84.5834256  63.8295395   2.2288906  82.4110031   2.7117464  68.8633919
  81.5759277   2.8975990  68.4340334  82.1730518   2.4872088  69.7629452
  97.8366280  23.5725474  89.9743557  98.0019283  24.4365358  89.5969486
  98.7078667  23.2015538  90.1141071  96.2808132   6.8948442  40.7989120
  95.5842972   7.0130002  41.4447737  95.8197021   6.7721009  39.9691248
  15.9173300  45.2205260  31.5372193  15.2893641  44.6680231  32.0026505
  16.7335608  44.7207553  31.5526402  21.7516615  61.4059563   2.1018326
  21.1966326  62.1791674   2.2034180  22.3535349  61.4438231   2.8451740
  61.0607195  34.9997973  63.1739473  60.9335613  35.9427905  63.2780123
  61.2325954  34.6820354  64.0603542  82.1616745  55.1555777  82.3155785
  81.7088795  54.6465683  81.6431808  83.0881405  55.0861645  82.0851898
 107.2912312  13.2136738  44.5579243 107.7932739  12.9466283  43.7879467
 106.4118767  12.8693426  44.4017363  36.7378428  85.9551032  59.1948425
  36.6807177  86.9067175  59.1088211  35.9389594  85.7083495  59.6608174
   4.2700436  47.7782263   6.1373150   3.8705542  47.5225128   6.9687378
   3.6269715  47.5255574   5.4748642   9.3399810 103.6283950  80.1986790
  10.1045322 103.0550156  80.1445770   9.4790363 104.1383616  80.9966946
 110.9827233  56.7974718  63.4966385 110.9714223  56.6092385  62.5581944
 110.7443000  57.7224512  63.5582745 106.1592389  79.2485435  50.1720917
 105.9077168  80.1612742  50.3131210 105.8321143  78.7878258  50.9447205
  55.2692941  13.9132482  21.7047131  55.6204274  14.5454342  21.0775959
  55.6911901  13.0859930  21.4725697  26.3173487  75.7302721  13.9546215
  26.4323904  76.6629918  13.7728798  25.4281332  75.6618888  14.3022644
  87.7181817  97.5724728  11.0615551  88.4787656  97.6877148  10.4919445
  87.4898005  96.6472514  10.9719097  97.1245766  34.0076995  75.4525518
  97.2689247  34.9138546  75.1800108  96.3267326  34.0405440  75.9803724
  10.5109169  44.8619604  78.7609720   9.7472335  44.9035788  79.3365479
  10.1536609  44.6218348  77.9060221  12.5001337 106.4645703   2.1939099
  11.8667414 106.2606413   2.8819954  13.2035449 105.8276398   2.3194611
   6.2467815  61.0801983  83.7251663   5.6358673  60.4720688  84.1413307
   6.7611457  61.4362526  84.4496536   5.7227900  74.9402077  13.3397305
   6.2775423  74.7711165  14.1012299   5.3396800  74.0887816  13.1286919
  88.6542273  37.2593553  12.5274670  88.1788112  37.3681529  13.3511078
  88.5137654  36.3430197  12.2890770 103.5786630  46.1577804  -0.1181496
 103.3719350  46.5922071   0.7093537 104.2915393  45.5568219   0.0983822
  89.8585701  48.5763454  57.4161530  90.0811672  47.8638220  58.0153179
  88.9282417  48.4504557  57.2294378  21.2980750  55.2403131   6.1263287
  22.0557787  55.1790371   6.7080128  21.6739085  55.3835629   5.2577316
   8.2806636  14.2094374  87.1024990   8.4996273  15.1271403  87.2640705
   7.5123359  14.0465999  87.6496696  59.6958875  90.1633645  73.6410379
  58.8558911  90.2074791  74.0978670  60.3404473  90.0343133  74.3368292
  26.2293627  94.6824057  12.5812637  25.6320670  93.9904816  12.8653538
  27.0797827  94.4261343  12.9381001  81.2932491  29.1112256  83.2623959
  81.0476112  29.8345137  82.6855564  82.1838379  29.3209982  83.5436153
  65.2393248  61.9070764   1.5874016  64.4314959  61.8403621   2.0965111
  65.7517149  62.5783230   2.0380795  58.9966443   4.7386486  21.7069828
  58.3144048   5.1380283  22.2466767  58.6046460   3.9256269  21.3882839
  15.1986455  95.8438564  87.3232651  15.1078366  95.8202267  86.3706779
  16.1250257  95.6610060  87.4801636  38.9308550  40.0022228  12.2382557
  39.8392298  39.7981436  12.4605953  38.4424021  39.8279877  13.0428040
  79.0753698   8.6637843  68.1971884  78.8634920   9.2119390  67.4416351
  79.6311665   7.9703075  67.8416443  58.8687515  35.2959538  90.5444336
  58.3172131  34.5761943  90.2378750  59.3160391  35.6069517  89.7573853
 110.1891995  85.5840023  14.8396980 109.9187280  84.7314127  14.4988548
 109.4850589  85.8377464  15.4363739  31.0726740  75.1109679  16.4071858
  31.2639334  74.9540861  15.4825031  30.1249030  75.2416284  16.4369213
   6.7082121  36.5214021   2.3019325   6.9551661  36.4403374   3.2231724
   6.8781092  37.4388499   2.0882618  25.5219363 102.1421698  81.6494370
  25.9904431 101.3128615  81.7442131  25.3308200 102.4132574  82.5473404
  98.4036922   7.6309896  55.6497526  98.7358665   7.1933496  56.4335680
  98.7063408   7.0849872  54.9241400  20.0419857  38.1737065  79.5921373
  19.3621971  38.2362700  78.9211655  19.7370197  38.7460542  80.2961636
  24.2915060  96.9313414   1.3423550  23.3977511  96.7130263   1.0782158
  24.8449137  96.5165074   0.6806385   1.7459872  91.2482436  23.8195049
   2.2743323  90.6253321  23.3204472   1.9674160  91.0715730  24.7338307
 103.5650921  10.2707648  69.5260906 103.6236954   9.8795271  70.3977156
 104.4751453  10.4133725  69.2658901  96.6603470  15.5536461  87.1518517
  96.8046093  16.4192688  86.7695999  97.1824169  14.9623370  86.6096020
  80.8066510  87.7519799  47.0697117  79.8820733  87.6671684  46.8369341
  81.1855745  88.2711375  46.3604021  -0.0045250  22.0763636  59.7592497
   0.8352138  21.6759992  59.9846220  -0.1509903  21.8279958  58.8465118
 106.7440796  78.2317495  67.3593044 107.0476341  79.0934944  67.0738459
 106.7360687  78.2851028  68.3149815  94.8069814   2.5945026  11.0231220
  95.4965165   1.9432384  11.1520970  94.0314058   2.0807535  10.7978069
  10.7483532  44.7752142  73.2183027  11.3945247  45.4414272  73.4525108
   9.9390747  45.2661180  73.0757904 105.5920601  23.5852885  64.9294996
 106.5240765  23.3689642  64.9017286 105.4980469  24.1407061  65.7033920
  68.3609104  22.0852852  80.1171207  69.0266991  22.0123315  79.4332838
  67.9080725  21.2421227  80.1014328  91.9339848  41.4806890  75.2554369
  91.6667366  41.7498970  76.1342621  91.6087437  40.5844831  75.1701927
  93.9598465  22.8615975  91.3267231  94.3182850  22.2369432  91.9572449
  93.0311775  22.9218364  91.5507317 111.4567852  53.0893850  63.6740017
 110.8724403  53.7840557  63.9776611 111.6467762  53.3170080  62.7638817
   2.9358341  35.9838414  91.6294765   3.5266830  36.7368317  91.6411877
   2.1995880  36.2655282  91.0864925  23.9184096  44.8595948  22.8423226
  24.5582678  44.1591908  22.9698002  24.3637183  45.4908766  22.2771561
  95.9994030  46.4406157  84.0833759  96.6938496  46.5709019  84.7291279
  95.5540085  47.2865868  84.0366459   4.2760899 102.8695233  23.7934315
   4.9516013 103.2986386  24.3185818   3.4504654 103.1764872  24.1680538
  84.1864300  53.1040621  62.6384830  84.8482132  53.6101055  63.1098604
  83.6835289  52.6679564  63.3263302  25.5683997  69.8672588  31.7171871
  25.7499697  70.2912993  32.5559055  25.1619341  69.0334578  31.9533837
  84.4008878   8.0403358   2.7774822  84.9545625   7.9439766   3.5523426
  84.4821790   7.2037537   2.3194897  50.1633837  79.8932536  16.4686978
  49.6816065  79.8412163  17.2941792  50.9920313  80.3123052  16.7010128
  82.1779728  57.5557327  52.5911808  81.9164085  56.9714928  51.8795061
  81.9051361  58.4256220  52.2994709  24.4625475  85.4297502  29.4398987
  23.8018038  85.2488048  28.7713825  25.2928069  85.4248054  28.9635765
  33.1581690  86.0489209  56.1758148  32.6814845  85.4488261  56.7492973
  32.4748423  86.5651472  55.7482445  20.2108862  77.3373873  13.2373154
  20.2346327  78.2404263  13.5538399  19.5793917  77.3522050  12.5181210
 106.3182832  96.8260891  27.6885807 106.3121034  95.8722336  27.7682507
 106.0413457  97.1401341  28.5493385  46.3286784 102.0343001  31.5425503
  46.9436266 102.1473248  32.2673237  45.5810072 101.5804131  31.9313919
  10.5193903  50.0684480  14.2450058  10.4068282  50.8347498  13.6825668
  11.4593794  49.8893939  14.2205631  92.9668903  22.7302504  71.0219145
  92.5658894  23.1511784  71.7823458  93.7788200  22.3511267  71.3584518
   7.4193718  43.5312557  90.0518608   6.6002990  43.9076042  90.3739071
   7.1724750  43.0712461  89.2495823  39.7633460  80.9267957  14.7342884
  39.7225859  80.2114661  14.0995705  39.2676547  81.6370828  14.3268406
 109.5254326  44.8934317  64.4307184 108.7491512  44.6010399  63.9530849
 110.1034355  44.1304827  64.4383526  11.3360217  96.5709574  26.8169892
  11.6196825  96.5579112  27.7311051  10.4606821  96.1839421  26.8322956
  97.8132629  26.4655995  73.4635544  97.6723576  26.1074471  74.3399668
  97.1125793  26.0852027  72.9338598  46.2362196 106.2748511  13.8844692
  45.8166220 106.5296824  14.7061932  46.0038283 106.9716437  13.2707035
 110.1905776  41.9755001  11.4506066 110.2371646  41.0753746  11.1283695
 109.2533732  42.1629031  11.5030873  14.0141489  83.7545688  20.2412235
  13.9006426  84.6947010  20.3808701  13.8772109  83.3658535  21.1051571
   7.5153400   8.4132355  79.8580837   8.2152511   8.0474812  79.3171835
   6.7215969   8.2915914  79.3371105  85.7766819  22.5210261  66.9565153
  85.8828449  22.7262187  66.0276175  84.8859024  22.1775651  67.0256472
  80.4771709  32.2178483  85.1947308  80.2784157  33.1440592  85.0574017
  81.4185333  32.1978688  85.3669930   0.9537174  17.3574173  90.2647400
   1.4323379  17.1281683  89.4681263   1.6040374  17.2869027  90.9635544
 109.8962688  29.5547056  69.1168451 110.6902409  29.9721193  69.4509220
 109.3520069  30.2820754  68.8152742  35.4134180  54.8230158   0.0643456
  35.7743647  55.3565071   0.7723915  34.5479872  55.1973875  -0.1003445
 105.0861073  29.7054338  61.4869833 104.9489975  28.7646651  61.5982628
 106.0038567  29.8431158  61.7215490  33.3466437  34.2260582  14.0263283
  33.5606959  33.3410199  13.7311661  34.0119078  34.7815151  13.6199772
  17.6029208 100.0978119  31.0837090  17.5132277 100.3435977  32.0044624
  18.1400874 100.7919247  30.7017529  53.1397298  20.1537163  11.7438900
  52.3694280  19.6313459  11.5202629  53.5860971  19.6446974  12.4205601
  50.0086977  56.8168239   6.7326271  50.7444003  56.3195754   6.3752663
  50.2127936  56.9111941   7.6630413   2.2731353  58.3463573  86.1825752
   1.6534187  57.6707697  86.4578247   1.7234851  59.0931749  85.9451485
  72.0556164  29.7841358  85.0431824  72.3999786  29.2061257  85.7240200
  72.4198151  29.4380569  84.2284298  89.0468502  27.9121375  68.6308861
  88.8910675  28.7646580  68.2244730  89.9534035  27.7020240  68.4067440
 103.4817219  34.3829870  65.0681019 102.6821709  34.0152431  65.4445457
 104.1132736  34.3694639  65.7872677  49.1841986  99.4407160  19.0365326
  50.0889018  99.5783217  18.7557995  49.1138651  98.4944756  19.1627037
  12.0341971  96.7969162  11.4943611  12.0654776  97.4977906  10.8431828
  11.2172797  96.9480069  11.9698155  26.7273477  21.9016153  10.5725968
  26.7047456  22.4018795  11.3883507  26.4668802  22.5298864   9.8990452
  94.3080902  30.7500410  89.3068504  94.6164989  30.5317593  88.4273815
  94.9254417  30.3120208  89.8927402  10.3857138  71.4694018   9.1411316
  10.2310374  70.5248268   9.1503441  10.9196093  71.6170712   8.3605015
  30.1851561  92.1918662  25.1274025  29.7378828  91.6789444  25.8005249
  30.6404879  91.5409453  24.5933544  22.9448893  90.4481967  17.9767906
  23.3091452  90.1356156  18.8049423  22.3833373  91.1828120  18.2242310
  94.7917938  61.1827326  88.1337357  93.9403629  61.1831141  87.6963711
  94.9103642  60.2790833  88.4263039  82.4902534  29.0677929  85.9883690
  82.3552704  28.4648561  85.2572918  83.4414959  29.1410494  86.0659122
   0.8789589  60.2558565  82.6355076   0.5691101  61.1248970  82.8904438
   1.8214466  60.3651905  82.5090313  32.6249030  83.4594567  45.4185974
  31.7477896  83.2230408  45.7202732  32.5588324  83.4558637  44.4636929
   8.1369784  96.1194212   9.9351322   8.9119246  96.3906796   9.4430935
   8.0050471  95.2039654   9.6886074  97.3071957  11.4655578  78.0287313
  97.2270489  11.4174199  78.9813519  96.4653969  11.8137264  77.7348328
 106.9488955 100.8899720  35.7863819 106.1245490 101.2774928  35.4922592
 107.5837994 101.6038306  35.7269489 102.1604633  18.2549787  37.5983834
 101.4087009  17.6647675  37.5460958 101.8136024  19.0492189  38.0047131
  63.7006330   3.6014214  88.8278008  63.6153364   3.4834796  87.8817272
  63.3802843   4.4890180  88.9883614  95.1561546  66.1232233  77.1824026
  94.4258690  65.6784678  76.7521667  95.1358795  67.0129395  76.8299532
   5.7032253  43.1888866  59.6991730   5.1816703  43.4341860  60.4633951
   5.3302623  43.6996889  58.9806938  88.0205536  46.7303610  74.9347496
  87.9792690  47.6863432  74.9598265  88.1089783  46.4703083  75.8516932
   9.8439170  58.6271191  58.1924820  10.6228401  58.9032221  57.7094889
   9.3639709  58.0734158  57.5766134  15.4686263  81.5159423  17.4392807
  14.6534350  81.8525488  17.8112805  15.6568816  82.1014030  16.7057717
   4.1627934  95.6374104  12.2276222   3.2970192  95.9665282  12.4691784
   4.3910124  95.0267537  12.9285061  67.0540860  32.3730261  24.0787804
  67.2184709  31.9451792  23.2384407  66.1744359  32.7404482  23.9924538
  14.9893286 101.0937340  39.3747723  14.2209628 100.6114562  39.0694058
  15.0253107 101.8676837  38.8126862  14.0156986  19.6080816  66.1416626
  14.8896553  19.5703399  65.7530594  14.1110374  19.1719592  66.9883871
  74.6534398   1.1386234  54.8546612  73.8061860   1.0229141  55.2847969
  74.4471505   1.1564190  53.9201176  87.0210457  27.2791171  85.3060436
  86.3918018  27.9606867  85.5421543  86.7754936  27.0241356  84.4167042
  77.7901033   3.6109096   4.7999203  77.2605947   2.9032547   5.1674473
  77.4076322   4.4096882   5.1631176  35.0153639  91.7669041  40.4540455
  35.9079459  92.0109160  40.6989777  34.5641711  92.6019795  40.3303444
   3.1636764  34.5497012  70.4124212   3.3527710  33.6697578  70.0865746
   3.8578273  34.7240353  71.0480356  75.1484587  96.8710740  20.4545223
  74.4871714  97.5470622  20.3062832  74.6607783  96.1366017  20.8272850
  25.2954485  90.4655845   3.1663048  25.4996970  89.6745832   2.6674664
  24.4125655  90.3145678   3.5038578   1.2078334  42.8259945  76.6089630
   1.8822910  43.4987068  76.5151930   0.5331089  43.0735397  75.9767389
  27.4730113  60.0903786  43.7264168  27.0929148  60.9240044  44.0035927
  28.3388617  60.3218908  43.3903515  58.4109834   6.9796688  35.8260452
  57.5925020   6.8572552  35.3450691  58.6128858   6.1133797  36.1796105
  29.2125704  94.4218142  10.1700508  28.8698866  93.9363892  10.9204971
  29.0051367  93.8722022   9.4143212 108.7551689   8.3389378  78.6122942
 108.9601517   8.6967468  77.7484751 108.4503460   9.0926170  79.1175508
  59.0762713  79.0962632   4.9112427  59.5218279  79.4362052   5.6872189
  58.2941439  78.6639936   5.2542507  34.8455337  29.2195208  26.1603558
  34.5406297  28.3973486  25.7765591  34.4047120  29.2658026  27.0087444
  16.7071964  49.8172474  79.5245934  17.4424697  49.3578625  79.9302626
  15.9578659  49.2374897  79.6610737 111.9460964  48.9439011  73.3278990
 111.2417889  48.3340549  73.1081867 111.6837120  49.3201971  74.1680098
   6.0725119  62.4124105   5.4252159   6.1947539  62.9198755   6.2275707
   5.1929572  62.6440604   5.1269734  38.8273146 106.3994439  37.3302471
  38.4460070 107.0491488  36.7397225  39.0778830 105.6738789  36.7584049
  -0.0466058  73.2962866  10.1743424   0.0118782  73.6256106   9.2774880
   0.3418305  73.9884002  10.7094395  87.8672504  39.8882556  82.7717304
  88.7692165  40.1571083  82.5973511  87.3916626  40.7099867  82.8934097
  38.0004218  83.1157119  25.1491081  37.8429224  82.3427255  25.6912529
  38.2418063  82.7625449  24.2928230  98.4117699  39.4616294  64.3422174
  98.4076405  38.5704684  63.9928675  97.6187420  39.8622012  63.9860106
  66.8632555  19.8065436  79.1540289  65.9350967  19.9084699  78.9434099
  66.9181919  18.9554346  79.5885706 111.8887234  23.2847548  70.8996344
 111.8412685  22.3897624  70.5635214 111.3690853  23.2666492  71.7033005
 109.1982555  33.1330848  79.8723269 108.5182476  33.0670500  79.2019081
 110.0005341  33.3142710  79.3826866  80.0464725  30.3016305  87.0460892
  80.7974148  29.8448396  86.6670704  80.0372791  31.1523628  86.6074467
  64.3523219  99.9157984   9.1956341  64.1979315 100.3382380   8.3506882
  63.5727408  99.3798621   9.3414604 101.3818932  85.3880293   5.1655399
 101.1453582  86.2790353   4.9078667 101.4166165  85.4164536   6.1216843
 108.2793617  56.7102289  92.0255566 107.5787735  57.0725584  92.5678921
 108.0845737  55.7743454  91.9764519 108.5146999   2.0164762  88.7440491
 108.2191372   1.4204538  89.4322586 109.2185116   2.5218341  89.1508579
   1.8629219  62.2777833   8.9437782   2.1736052  61.7446895   8.2119858
   1.9297125  63.1791915   8.6287605  14.5496752  63.0873932  12.6179135
  14.5387557  62.8478194  13.5445797  15.2306845  63.7567670  12.5515854
   8.1658461  93.3550627   9.4417393   8.2312396  92.6185067  10.0495541
   7.7993205  92.9749544   8.6433613   5.0804999  82.3124201  21.4303219
   4.6930792  83.1869562  21.3939583   5.4946425  82.2695715  22.2922241
  33.9623263  65.5407972  11.9286835  34.8899939  65.7652349  11.8558991
  33.7098029  65.8457072  12.8001702   1.1899044  32.3415470  80.6313419
   1.7597343  32.6838350  79.9425983   1.2535907  31.3904476  80.5442238
  88.1980610  12.2215092  90.5993938  88.6960316  12.9323387  90.1956940
  87.7904224  12.6209712  91.3678265   2.4748661  88.9568169  16.5792763
   2.8940728  88.0967410  16.6069615   3.0917551  89.5383580  17.0236694
  81.8731499  42.6101065  82.4732113  81.0963917  42.6945114  81.9202614
  81.6414070  41.9342470  83.1101894  86.4329147  56.4114523  45.9064722
  86.6193295  57.3000193  45.6032705  86.1094761  56.5262032  46.8000317
  12.0538142  78.9974816   1.4341175  11.3240721  79.6166213   1.4147961
  12.6013853  79.2952497   2.1605694  77.6096058  41.8163538  79.1501236
  77.0501661  41.3150883  78.5568285  77.4924421  41.3960695  80.0021076
  84.6633053  14.0713048  69.6134043  85.0225544  14.8231673  70.0844479
  83.7541771  14.0163136  69.9078274  83.4161472  61.5893888  86.8877029
  82.9349518  62.3119354  87.2909451  82.8864098  60.8145475  87.0754147
  41.7159465  14.7189266  17.8552067  42.6559308  14.6433384  17.6910507
  41.6511682  14.9180061  18.7892258  14.5524837  32.7970719  81.5135288
  13.8968517  33.2274461  80.9647465  15.2613212  32.5746012  80.9099674
  34.1751292  90.3358133  11.5237248  33.6146452  90.0323398  12.2378742
  33.5644915  90.6512744  10.8575165  11.6719581  34.9125695  83.3439732
  12.4729873  34.9789572  83.8637543  11.2856151  35.7873011  83.3865738
  97.3554039 105.0835991  71.5683556  97.7932358 105.9223080  71.7136145
  98.0134106 104.4271374  71.7970610  65.8244375  19.6354610  34.5843994
  66.1253694  19.5119841  33.6841690  65.6264547  20.5700190  34.6447003
  15.6141188 100.2036841   5.4890358  16.1252310 100.6252177   4.7981655
  14.8240378 100.7389767   5.5629837   2.9074146  64.0030622  87.8926277
   2.4245693  64.7323322  87.5037003   3.4526302  63.6696386  87.1800327
   3.3821441  43.2554960  84.1929626   3.8440849  43.2358789  83.3548450
   3.9777519  42.8230524  84.8049068  97.7356911  60.4047346  66.8744993
  97.8705120  59.5625448  67.3089790  97.7532864  61.0461903  67.5847530
  47.4098542  34.7822554  22.2300350  47.0877889  34.0490419  21.7057240
  48.1625226  35.1142771  21.7406571 101.8302917  35.0585794  83.5940552
 101.0987377  35.0203705  84.2101765 101.4636326  34.7454762  82.7671623
  69.3144849  17.2227222  28.5775768  69.9077848  17.8871757  28.9278996
  68.6691430  17.0880348  29.2715752 111.7507744  45.0011873  82.5042820
 112.6540565  44.9549246  82.8176117 111.8088055  45.4764986  81.6754627
 107.0194054  31.4669728  70.5111456 106.6741085  31.1735272  69.6680021
 107.8212261  31.9406176  70.2898407  82.8502801  32.4389059  44.6934235
  82.6988557  33.3392412  44.4058525  81.9736818  32.0841295  44.8415100
  94.2506027  62.1299839  64.0830564  94.2069817  61.7939854  64.9782848
  93.9981079  61.3864851  63.5356140  74.1566324  60.4455948  91.1369228
  74.3429232  61.3776970  91.0241413  74.8985243  60.1124382  91.6417313
   4.6637870  15.6525743  82.6658058   4.1868164  16.1881459  83.2997608
   4.0734054  15.5871904  81.9152069  22.2513248  16.8546772  89.7375202
  22.0989372  17.4718416  90.4531384  23.0844547  16.4366126  89.9551201
  59.5151857  13.6580021  16.9945252  59.9694112  12.9270918  16.5753853
  58.6063722  13.5719950  16.7065918  46.8640950   5.3324348   1.8920052
  47.7005056   5.7395727   2.1175682  46.2591794   6.0674936   1.7919361
  75.7456446  83.3041191  65.9217787  76.6753912  83.3752537  65.7055712
  75.6374836  82.4009705  66.2198639  43.1008958 102.8430608  76.2175703
  42.8797197 102.0692629  76.7357874  42.4511384 103.4972400  76.4746571
  57.6197007  21.1387903  27.8730976  58.4348157  20.7343895  27.5760090
  57.8570321  21.5881664  28.6842549  91.6569901  57.9634047  80.0952530
  90.7786942  58.1420374  79.7592163  92.0380783  57.3577404  79.4595098
  16.2119772  99.7960598  14.3989479  17.0924475  99.8287470  14.0248596
  15.7746127  99.0915425  13.9208233 103.5653210  66.8390942  73.3314943
 103.9649391  66.9361258  72.4671364 104.2786694  67.0117903  73.9459324
  27.9226115  66.4460535  29.1594898  27.3960116  66.4271469  29.9585831
  28.8068201  66.6557069  29.4602310  93.1790924  62.4032021  78.5469198
  92.5375557  63.0403519  78.8610888  93.1401443  61.6899776  79.1841173
  94.1409874  42.3290157  68.3165073  94.6796513  42.1713161  69.0918827
  93.5909557  41.5489578  68.2442951  71.0074043  30.6748652  51.6918278
  71.0355043  29.7716475  51.3761711  71.9119263  30.8717179  51.9353867
 101.9625473  38.7976718  85.6271553 101.6265202  39.6720600  85.4302692
 102.3863602  38.5158110  84.8164940  35.3027155  90.7795484  17.8929531
  35.4842856  89.9470599  17.4567997  35.6016066  91.4448817  17.2730839
  74.9843553   7.2160990  29.2422115  74.9256376   7.4429542  28.3141434
  74.2414621   6.6317303  29.3934071  14.5303585  51.5870953  83.3581829
  14.5763733  52.4382973  83.7935829  15.3197052  51.5514326  82.8179169
  96.2116718  34.3114066  63.8432455  95.8652878  34.2259288  62.9550219
  95.4683018  34.6195483  64.3615961  24.8046924  18.2369053  87.7311230
  25.0798942  17.8325009  86.9083500  25.2064468  17.6952159  88.4103870
  43.5089114  78.7564237  24.2790329  43.6692622  79.1192253  25.1501763
  43.1980898  79.5004351  23.7632191  73.9657593  89.8802471  85.8367825
  73.9352417  89.0819073  86.3640022  74.8530769  90.2165318  85.9625149
 111.2777901  45.8113956  49.4877386 111.3940048  46.7291212  49.7337198
 111.4533329  45.3236675  50.2924395   1.2139370  90.5995274  84.3432045
   0.3471710  90.2119350  84.2218304   1.1244537  91.1468315  85.1233864
   4.7941257  30.0615835  91.1528492   5.4531528  29.7597599  90.5276966
   4.9500515  31.0028815  91.2294960  61.0447553  43.1058580  16.2585842
  60.1940397  42.6942999  16.4107239  60.8915666  43.7114603  15.5333244
 102.8963280  23.8595605  73.7451315 103.6969852  24.3839407  73.7597990
 103.1303692  23.0790710  73.2428408   6.4616443  56.6705990  90.9916306
   6.7834713  57.5562906  90.8236599   6.0020782  56.4263916  90.1882648
  48.3738043  88.5203726   9.4224846  47.8701975  88.9031775  10.1408684
  48.5122588  89.2459829   8.8137543  42.2483065  80.3704197   3.2147896
  42.7756216  80.1057990   2.4610340  41.4633753  80.7624967   2.8321755
  38.6486342 100.0805647  11.0534107  37.8909590 100.6651099  11.0750210
  38.3642008  99.3019898  11.5321076  85.4991627  41.0342073  61.2247944
  85.1900291  40.2061605  61.5922308  85.3918934  41.6664600  61.9354153
  84.6479749  91.4424384  57.1582460  84.7862004  92.3479212  57.4361420
  85.2998876  91.3003624  56.4719105   2.2991040 104.0863974  33.7862885
   2.4057343 103.9175732  32.8501427   2.4969294 105.0176318  33.8857853
  64.6588662  10.6757910  28.1399738  64.6444753  11.2791378  27.3970043
  64.9445298   9.8422224  27.7660954  58.9459565  30.1619799  20.7140171
  58.2061342  30.5638391  20.2585995  58.5476545  29.6782858  21.4376461
  62.6159147   7.2673160  56.7729580  63.3926824   7.0397884  56.2619984
  62.0306638   6.5174944  56.6658222   2.0164539  84.5423508  68.6880779
   1.4010192  85.0638485  69.2033625   2.8323604  84.5719147  69.1877317
  97.4299431  62.7206421  89.3204308  97.4849129  63.2850838  88.5493183
  98.0220795  61.9936562  89.1278172  54.7496274   2.5427324  36.6809094
  54.6285680   1.7547829  36.1510956  53.8618425   2.8638489  36.8389141
  31.1056044  88.7827022  16.6817963  31.8473532  88.3796890  16.2305462
  30.4201224  88.8356550  16.0158074  68.0521491 100.6477959   5.7228863
  68.6187937 100.6604702   6.4942372  67.2038557 100.9538205   6.0437977
  21.3788226  71.3965578  16.0558808  22.2778799  71.4203281  15.7282173
  21.2864401  70.5241604  16.4387905   8.1962921   1.0305969  51.1122179
   8.8640739   1.2732928  50.4708099   7.4917652   0.6460753  50.5906630
  43.9178851  49.8391513  40.6596005  44.7544577  49.8234738  41.1245072
  43.2582095  49.8066590  41.3524162 112.0195770  40.1117992  47.2462225
 111.1707973  40.0445795  47.6835871 112.5943184  39.5343494  47.7486706
  83.1174469  11.8397617  64.8931456  83.6797428  11.7165506  65.6579113
  83.1781578  12.7751875  64.6994352 100.0156879  21.6239142  66.7594576
  99.5854664  21.6823459  67.6125240 100.4412174  22.4739361  66.6470909
  40.0070288  36.2623544  11.4816963  40.9131911  35.9905381  11.6273892
  39.5914271  36.1803694  12.3400604  14.1100933  26.5818596  65.9418392
  13.2258178  26.6552758  65.5827999  14.5073082  25.8600926  65.4544973
  47.9060887  97.9317570  70.0131750  48.1167173  98.8020248  70.3515577
  48.3072518  97.9090393  69.1443872  40.7083037  70.7950075   3.0727875
  41.4552691  71.2018867   3.5118019  41.0183718  69.9219747   2.8321469
  76.9267225  16.1550176  69.4932795  76.4978647  15.3770173  69.1368675
  76.3162088  16.4839864  70.1530409  81.5146112  92.4458171  52.3608589
  81.0481977  92.8832472  51.6485786  81.3733625  93.0095637  53.1214285
  61.8665265  95.5056942  70.1279831  61.0532903  95.1051629  69.8206520
  62.4729203  94.7715974  70.2260828   8.9503719   4.1148043  61.1333418
   8.8626052   4.7952300  61.8008375   9.8633911   3.8342497  61.1959124
  81.0242128  79.5137454  68.3037806  80.3617906  79.9500657  68.8395452
  81.8044614  79.4925213  68.8578510  28.7050822  71.9569368   4.8657715
  27.8918555  71.4885981   5.0543415  28.6867144  72.0971830   3.9190876
 108.9747238  16.9846165  89.3077087 108.2142830  16.4368653  89.1129494
 108.6628246  17.8808200  89.1821194 107.3172569  23.1669617  80.4825783
 106.9574261  22.4087095  80.9427929 108.1437206  22.8539276  80.1148701
  10.1203872  39.9050140  69.9463320  10.7655574  40.4956055  70.3351641
  10.2139808  39.0899467  70.4394197 111.9266987  31.3718534  39.5496464
 112.0054245  32.1513128  38.9996648 111.1141491  31.5043473  40.0379610
  13.2010032  68.6832333  68.0875349  13.4735252  67.7656603  68.0926800
  13.7392475  69.0967321  68.7624741  63.8731336 101.3110036  76.9840574
  63.2779550 100.7846761  76.4502287  64.0039872 102.1125043  76.4773989
  68.7991189 102.7002991  43.4477901  68.0143594 102.4299083  42.9710531
  68.7864350 102.1747009  44.2476749  93.9320183  24.5750570  74.7114515
  93.8646221  23.6818647  75.0489330  94.0456200  25.1179290  75.4915905
 112.3537875  87.4838860  14.6621716 113.0811263  87.1095021  15.1592076
 111.7665435  86.7448170  14.5035755  81.3258553  15.4450309  76.2604761
  80.8933926  14.7469056  75.7687235  82.2559166  15.3375900  76.0612869
  10.8641864  34.1203356  74.0885162  11.0847999  34.6110868  74.8801708
  11.3280822  34.5768547  73.3866453  48.8476756  60.2484823   2.8549778
  49.4234469  59.7986789   3.4733689  49.4439413  60.6942917   2.2533524
  39.7532370  81.4031465   2.3747646  39.0879538  80.9721334   2.9112827
  39.5032980  82.3271258   2.3798096 103.1844997  10.0033438  89.7761345
 102.7531910  10.2826190  88.9685345 104.1195679  10.0509942  89.5771027
  68.1663942   1.1394386  82.2781754  68.5913229   0.6844492  81.5510941
  68.0849075   2.0450738  81.9791508  16.0300162  86.1438973  43.6670887
  15.2678778  85.6477196  43.9657414  16.1915400  85.8236582  42.7796280
  88.6780262  16.5118742  74.8762846  89.1238880  17.2852683  74.5308828
  87.7480888  16.6873574  74.7325563  94.6747971  10.5342078  68.1283808
  94.5299911  10.2490652  67.2261858  95.6101418  10.3947973  68.2764339
  59.5180655  36.7930436  73.0727053  60.4494810  36.8766046  72.8684807
  59.0774870  36.8999743  72.2296810 101.2121296  16.1701715  82.9467392
 102.0398426  16.2372625  83.4227943 101.4155483  15.6222737  82.1886826
  93.1381798  52.1540308  56.6680908  93.5056686  52.4597359  57.4973822
  92.7234173  51.3186550  56.8833780  58.0044270  17.0467126  77.6927757
  58.8347292  16.9072104  78.1481600  57.3638391  17.1662092  78.3939171
  63.5690691  76.2813218  34.8379242  63.7005427  76.9710834  34.1874039
  62.6183512  76.2127097  34.9254429  95.1189995  30.7025933  75.5942869
  94.7633553  29.8455763  75.8293819  95.6709766  30.9450006  76.3377905
  67.9616975  75.0791145  50.1292181  67.1604203  75.5114961  50.4245472
  67.9362725  74.2174984  50.5453968  31.8018009   9.9002039  87.5927258
  32.6633312  10.0038016  87.1886635  31.9024326  10.2705777  88.4696102
  85.0318813  48.0144882  59.2922163  84.1666698  48.2203436  59.6461344
  85.0730515  47.0582199  59.3012762   9.7217944  58.2186706   9.2260182
   9.4100478  58.7997646   8.5322010  10.0497248  57.4475820   8.7632954
  52.3089888  80.6591971  19.8775112  52.7371886  79.8524888  20.1640427
  51.9217303  81.0209639  20.6746304  42.9408266  50.5423833  16.9624722
  43.7900832  50.3807805  17.3734295  42.8997328  51.4935723  16.8635666
  35.5253890  35.4690785  12.8469574  35.9183886  35.8366091  12.0553028
  36.2041190  34.8994656  13.2090389 100.4906368  17.6677334  85.3691769
 100.5404949  18.6090291  85.2027225 101.3029861  17.3166406  85.0044155
  71.1311196  92.1245289  61.5363789  71.7977666  91.7750919  60.9450197
  71.5816831  92.8134108  62.0249224  91.2774563  13.4905350  62.1594954
  91.4547825  14.1950607  61.5362501  92.0705986  12.9547966  62.1473932
  65.2871561   1.9849135  77.0813560  65.3697824   1.1881720  76.5573263
  66.0312843   2.5249386  76.8151236  61.6640710  91.7270232  56.5233040
  62.5316667  91.4206589  56.7872190  61.1785649  90.9270299  56.3219929
   4.2540505  86.6279776  16.6053974   4.6861365  85.7946308  16.4181339
   3.9945748  86.5620382  17.5243961 112.7211476  42.7324934  24.7694504
 112.5302220  43.6036600  25.1170838 112.0766641  42.6059384  24.0731346
  46.2801026  99.0377910  60.0108242  46.2061166  98.3108312  59.3925285
  45.5946492  98.8723535  60.6581497  28.5583594  61.3355769  36.4588463
  29.3670466  61.7174472  36.8000710  28.6100581  61.4711524  35.5127060
  62.2699117  92.0559478  72.7839375  61.6524743  91.3634229  72.5485516
  62.3124169  92.6132322  72.0068502  88.0445004  26.0179543  75.5453014
  88.2316589  26.8664742  75.1437855  88.8307190  25.8139896  76.0517502
  71.1654998  87.7951677  -0.1365745  70.2888823  87.7478130   0.2449047
  71.7290045  88.0604894   0.5902683  84.8059610   6.9755012  28.0458462
  85.1083043   6.2198288  27.5420773  83.9669278   7.2082455  27.6482594
  80.4379940  18.2540226  90.3788662  80.0213814  17.4494600  90.6876469
  79.7232246  18.8883924  90.3249359  83.1431007  21.0318756  61.7393875
  83.1069183  21.7817044  62.3332548  82.3892784  21.1478400  61.1609983
  76.2949895  85.2061487  77.6357126  76.1731576  85.9417797  77.0355129
  77.1167516  85.3989125  78.0871344  95.6579541 100.4353649  75.8532858
  94.7356366 100.2966685  75.6380701  95.7119607 101.3611371  76.0904789
  36.2835696  75.0230200   3.7674915  36.1888030  74.1133459   4.0498840
  36.1029437  75.0021322   2.8277218  28.0508044  72.7804513  16.5354645
  28.0566599  73.6028631  17.0251953  27.7372935  73.0227776  15.6641304
  48.8036298  84.7909546  58.7804937  48.4876298  85.6373501  58.4642792
  48.1441449  84.5110298  59.4152832  19.6293452  88.7888224  14.8434937
  19.6364691  89.2941172  14.0305626  20.5373194  88.8087280  15.1458466
  19.2739154  32.2736502  91.7416191  18.7172939  31.6782570  92.2435284
  20.0530292  31.7569971  91.5359974 101.1235523  53.6465406  52.8101730
 101.0640335  53.5252237  51.8625593 100.2810001  54.0284348  53.0561352
  29.9282886  31.4966512  90.8328056  30.2960254  31.7146063  89.9763584
  30.6565811  31.6132927  91.4428902  98.8874817  52.3214483  40.6497383
  98.7349415  52.9025221  39.9045467  98.3535862  51.5489197  40.4642916
   1.2429573  30.4631448  74.2864084   1.0467674  30.8056164  73.4143686
   2.0677139  29.9896383  74.1777992  92.6048279  47.5055361  74.2725754
  93.5387516  47.4482012  74.0707397  92.5742435  47.7481842  75.1980019
   7.2082664  40.9169912  58.9414263   6.6424324  40.5727482  58.2503796
   6.7271663  41.6655207  59.2942381  12.6047041  49.8932688   3.3993351
  11.9184878  50.3205801   2.8867447  13.4070399  50.0466941   2.9003822
  51.7694425  97.2689570  80.0964165  52.1543836  98.0830110  80.4210186
  52.2525930  96.5780962  80.5497456  46.0331347  91.8111308  21.9155419
  46.7412283  92.4260886  22.1070397  45.3336623  92.0549448  22.5217831
  90.2603340  34.2540479  68.7124872  90.7860184  34.9380755  68.2977629
  89.3547440  34.5019627  68.5262966 105.4140663  43.3726692  65.8670187
 105.2944756  42.5277519  65.4333782 104.6384430  43.4702921  66.4193964
 112.7283859  51.4153290  80.3019905 113.3955479  51.5476561  79.6284819
 113.2217312  51.1555529  81.0800457  56.0854723  71.2049766   1.4429962
  55.7505038  72.0980902   1.5228378  56.2507918  71.0939832   0.5067360
  48.4714701  78.0339844   3.4192097  48.2428553  77.2198541   2.9706967
  47.7446845  78.1870229   4.0230286 100.1592064  58.2626581  87.2876930
 100.7531548  58.9217377  86.9284439  99.7092247  57.9035044  86.5229988
  60.1265907  12.3113000  88.0833530  59.6405125  12.9015708  87.5075531
  59.4699574  11.6909111  88.3998585  75.1418066  21.3119078  78.9340353
  75.3165388  20.3767276  79.0395737  75.2850151  21.6821146  79.8050499
  95.8632183   5.8620787  64.6011019  96.6181946   5.9755671  64.0237141
  95.8089447   4.9167722  64.7413874  18.0894901   0.3986823  70.6583261
  18.8874199   0.7772727  70.2892494  18.1570293  -0.5365886  70.4661274
  82.6422596  27.4380445  90.2474213  82.7321529  26.5603924  90.6187344
  83.1867981  27.4220586  89.4603729  13.0835582  27.2853017  83.7975121
  13.3011963  27.8680587  84.5250130  13.9275219  26.9398522  83.5066128
  88.7883282  24.3888259  91.7725658  88.7014771  24.6029568  92.7014637
  87.8947163  24.2010069  91.4855003   9.9981164  89.1673220  77.0346498
  10.4480266  88.9596153  76.2157059   9.2023706  88.6357987  77.0122337
  76.4503145   1.6081078  85.8759212  75.7725859   2.2836885  85.8535099
  76.4773703   1.2662487  84.9822617  64.3968487  25.5541277  42.9534960
  64.9365044  24.9068499  42.4995852  63.8683748  25.0397754  43.5637331
 102.9865456  59.8182154  82.3267937 103.6521435  60.0800228  82.9629326
 103.0056572  58.8612986  82.3402405 108.7137700  89.8510749   0.1292431
 109.6434546  89.7926123   0.3494656 108.3707572  88.9746149   0.3035748
  75.8112477 104.0894527  75.9004831  75.2013158 103.7112058  75.2671146
  76.0109376 103.3702082  76.4996815 106.1369419  13.4912300  71.8727303
 106.6199398  12.7480268  71.5113449 106.7602730  14.2172050  71.8472099
  18.4880354  39.8220618   2.8112042  18.1955149  40.6341250   2.3974240
  18.2736781  39.1388531   2.1759808  92.0650864  17.9483271  61.9975519
  91.1541271  17.9245198  61.7045879  92.1236420  17.2545385  62.6544046
  58.9614724 104.0479914  58.1131887  59.8567533 103.8820890  58.4084511
  59.0601205 104.3635491  57.2148991  78.4796857  95.3945208  81.6605759
  79.0435552  95.2868689  82.4265385  78.9048909  96.0794378  81.1445045
  62.7858927  96.6990263  26.8365299  63.4368899  96.9765074  26.1919892
  63.3017638  96.4176972  27.5921547  16.2523463  84.5276864  18.7145054
  17.0400622  84.8921831  19.1180813  15.8087447  84.0680678  19.4273865
  82.7308273  28.3891797  79.2793894  82.1135902  29.0014052  78.8788509
  82.4166012  27.5246716  79.0145874  13.7700893  14.1462338  75.1460171
  13.7741233  13.2541323  74.7990751  12.8478672  14.3291926  75.3256416
   7.0591117  14.7463477  81.7461681   7.4188663  14.6841216  82.6310062
   6.1858036  15.1187086  81.8683243  79.9712658  34.2691469  82.4276733
  80.0348759  35.1856017  82.6965427  80.8547020  34.0430212  82.1367359
 101.0112762  74.5447350  48.1049395 100.2760315  74.0106297  47.8042936
 101.3466454  74.0805626  48.8719463  92.2275781 102.6638613  59.3218040
  92.7558278 101.8661416  59.3505907  91.3235234 102.3513246  59.2867088
 104.7092247  17.6939154  36.4529157 104.4525146  17.4642432  35.5598426
 103.8825989  17.8722644  36.9013739  99.4023895  47.4756479  66.3220024
  99.7756958  46.5944290  66.3040400  99.2335129  47.6830006  65.4029179
  18.0790569  30.7210088  82.5248241  18.9308883  30.5359817  82.1293831
  17.8534366  31.5960407  82.2091484  22.8260089  20.4820323  84.1210079
  22.6230575  21.1338782  83.4500790  23.0825950  20.9973454  84.8857594
  63.5268830 103.9542273  72.1410227  63.9758157 104.0832329  71.3055277
  63.1631707 104.8139501  72.3527431  39.9461081  58.1135468  36.5868008
  40.2703860  58.4334977  37.4286472  40.0458720  57.1629025  36.6373455
 108.6952591  38.4919977  90.6117058 107.9960537  39.0237856  90.2315140
 108.6971474  37.6899099  90.0893211  11.8555500  18.2568347  81.6401005
  11.1774971  17.6675487  81.3096237  12.3095085  17.7471721  82.3112202
  -0.0732038  58.6956389   7.7821076   0.5829050  59.2644025   7.3792946
   0.3596880  58.3442203   8.5601532  68.9142179  28.3606195  86.4081955
  68.0242300  28.4343767  86.7527485  69.0150976  29.1242433  85.8399200
  24.3985988  50.4704571  85.7255268  24.3260719  49.8479843  86.4490509
  24.0251876  50.0092745  84.9744606  23.8662627  97.5431426  15.0536453
  23.3617785  96.7310984  15.0056755  24.6243670  97.3877795  14.4902813
  92.7488327  39.7746754  61.8703794  92.3535061  39.6891928  61.0028315
  92.0193005  40.0092506  62.4439621  57.3710779   3.7119085   9.8166001
  57.8043416   2.8932602  10.0581085  56.6383222   3.7845690  10.4281723
 110.1469994  49.8800564  53.3192062 110.1669502  49.0775681  52.7978182
 110.7888794  50.4536629  52.9006386   0.0776531  63.0453539  74.7882032
   0.6685402  63.1588840  74.0437603   0.3695919  62.2342014  75.2041769
 112.4916649   3.3293676  25.4881024 112.5602055   3.8747627  26.2717342
 111.9478416   2.5893846  25.7581234 103.6306502   0.6432707  14.8605740
 104.4696070   0.7088978  14.4044315 103.4698273  -0.2976149  14.9320233
  83.8328362 105.8265431   0.4390061  83.8019896 105.4483492   1.3177883
  84.7644854 105.9698136   0.2724850  37.7766422  -0.2649754  41.9493496
  37.3455432   0.5479080  41.6855156  38.6866763  -0.1536768  41.6742432
  68.6725283  93.1551702  10.2998936  68.0752731  92.6357563  10.8381569
  68.3762432  93.0066569   9.4019043  26.5537504  33.3163340  24.6950257
  26.6328052  33.0817205  25.6196510  26.8431762  34.2277891  24.6535980
  60.4081205   7.3065645  17.0545113  59.7154096   6.9505722  17.6109802
  60.5451062   6.6367752  16.3845551   1.8424705   7.5929052  10.6919014
   1.8524721   7.8020794   9.7578919   2.7105668   7.8484518  11.0038864
  56.9896081   4.1114408  23.8840973  56.0447553   3.9649851  23.8391220
  57.0874551   5.0621111  23.8303768  91.9654609  58.6689694  23.1361401
  92.4083329  58.1493355  22.4652683  92.1218301  58.1915326  23.9509022
   6.0078862   9.9694044  52.0987427   5.3626684  10.4264671  52.6382076
   5.5577806   9.8120243  51.2687599  48.6546946  28.3715725  84.8692513
  49.2961025  28.7122393  84.2457294  48.9817619  27.5015688  85.0980568
  76.6651226  90.4452713   9.2275440  75.7335878  90.6150062   9.0873062
  77.1109367  91.1347635   8.7355244  41.8397430   6.7906553  16.9086086
  40.9016374   6.6004068  16.9089043  42.0543054   6.9391233  17.8295624
  60.2283955  21.8292737  89.6227074  59.5654440  22.1480465  90.2351665
  60.9838247  22.3983955  89.7698784  69.1609097 102.5951512  22.1393406
  69.1675735 103.5294564  21.9313633  69.9384285 102.2470553  21.7028534
  59.6387602 105.4954846  42.4548733  58.8383389 104.9761899  42.3781407
  60.0158025 105.2317746  43.2942402  59.6699310  89.5279248  37.8182614
  59.7858120  88.9862616  37.0376217  59.0648890  89.0297539  38.3677971
  95.3370048  21.5924723  33.9822781  95.5196883  22.3977072  34.4664776
  95.2252545  21.8783075  33.0756104  78.9937545  65.6635184  33.2983696
  78.4826804  64.9920638  32.8464996  78.8521815  65.4868300  34.2284119
  96.8796540  93.8135130  57.8103649  96.5731479  94.1788800  56.9804299
  97.6180888  93.2547934  57.5679218  92.3040868  83.3153923  66.1946499
  92.3992492  83.9447124  65.4797184  91.7689133  82.6127942  65.8256256
  73.3808804  74.8669481  74.1840553  73.2056808  74.1290569  73.6000586
  72.8737783  75.5900812  73.8150597 108.4152985  99.6042902  23.7866318
 107.7729131  98.8947947  23.7728798 109.2301799  99.1842778  24.0619385
  83.0555344  97.1292527  47.0473206  83.4604169  97.0286305  46.1858189
  83.0551434  96.2460740  47.4164021  75.3273822  91.5391357  12.0315373
  75.6290413  90.6317384  11.9883835  76.1314274  92.0579393  12.0557797
  22.7888587   3.2909614  53.7158405  23.7255863   3.1871397  53.8831722
  22.4301866   2.4080736  53.8058197  31.7657331   4.2111809  11.7021382
  31.7405847   3.3316118  11.3253700  32.6876071   4.4648296  11.6569531
  65.7846595  96.3891394  49.1274178  65.6620384  96.1483986  50.0457012
  65.4096533  97.2670681  49.0578377  95.4182292  91.8198092   2.0246613
  94.5897008  92.0363386   2.4523174  95.9962512  91.5576251   2.7411663
 110.8981133  72.6678677  37.8532612 110.4901219  73.4950597  38.1092465
 110.7569505  72.6135821  36.9080841  51.6166929  26.1078150  27.0347130
  51.4631418  26.1346323  27.9791367  52.3718980  26.6799528  26.8984997
  28.7810758   4.3291361  32.7554810  28.7317422   4.1586763  33.6960804
  27.8691009   4.4267542  32.4815952   5.1370624  49.1048796  31.3173878
   4.5551303  48.4253389  30.9770786   5.4916862  49.5297033  30.5363667
  44.8753595  54.2082262  91.1030579  43.9244223  54.1308498  91.0258389
  45.0928068  53.7115479  91.8918896  53.3056021  71.7625523  74.2047501
  52.7010250  71.6769505  73.4675980  52.7442074  71.9679260  74.9523401
 108.5639907  84.6242697  17.3712361 107.9259015  84.7157486  16.6636383
 109.1241074  83.8983829  17.0963013  23.6009792  12.8142673  10.6673729
  23.0372527  13.0370552  11.4081871  23.0726627  13.0162079   9.8951447
  88.5658885  77.8123577  30.1164448  87.9686166  77.8934796  29.3728554
  88.1464578  77.1726854  30.6918728   0.5907205  41.4460451  53.3945667
   1.1847380  40.8611757  53.8650047   1.0206798  41.5977556  52.5529301
  29.8300171  31.7917967  59.5207548  30.4948878  31.4095902  60.0935555
  29.4731498  32.5240898  60.0233746  38.6661077  67.0078468  89.4686413
  38.6090159  66.9020462  90.4182625  38.0097485  66.4043283  89.1205215
  25.1716283   4.3867666   2.6832306  25.0211194   3.6792881   3.3101666
  26.1200288   4.3945248   2.5539791  29.3105415  18.9756758  37.5337231
  29.9040225  18.6515362  38.2111847  28.9927295  19.8120434  37.8738987
  50.5343679   5.5599768  12.7178776  49.6563485   5.9403831  12.7427113
  50.5193952   4.9720556  11.9626629  48.9121679  18.7262566  33.6857330
  48.1559614  18.1434471  33.7545120  48.6865953  19.3286640  32.9768955
  26.3927511  21.6022713  50.4566681  25.5059770  21.4120466  50.7627403
  26.8703798  21.8530971  51.2473595  25.2024463  30.0883753  27.2176945
  25.7602123  29.3625814  26.9377911  25.0562194  29.9320871  28.1506550
  90.0761032  80.2985764  91.9740295  90.8173466  80.3423691  91.3699913
  89.5656490  81.0857582  91.7842388 112.7968575  30.7007296  33.0916321
 113.5545851  30.1202185  33.0202496 112.4417903  30.5250437  33.9630043
  92.3995591 101.3754733  32.1356690  91.6467667 100.7875521  32.0732987
  92.1832181 102.1041472  31.5538895  42.5129560  18.7344629  47.9199803
  41.7566207  18.6703188  48.5031426  43.0842832  19.3782932  48.3386624
  64.6714735  64.5787764  91.2427711  65.3715611  65.2078629  91.4170074
  64.0469980  64.7117758  91.9559193   8.6077517  55.6032801  92.8104496
   7.8995842  56.1673117  92.4996471   9.2834270  55.6735563  92.1360970
  97.6084615  83.7427599  35.3033745  98.4287215  83.2493956  35.3052532
  97.0402003  83.2649691  35.9075462   1.7547371  90.5696208  36.8364823
   2.3242810  91.2228997  37.2427857   1.7649605  90.7891781  35.9048664
  52.9101041  25.0088913  14.3449795  53.5215524  25.3040296  13.6702549
  53.3395723  24.2514975  14.7426521  10.5045130  82.9646714  39.5559418
   9.8525526  82.3274524  39.2641651  10.9154704  82.5553305  40.3173744
  17.0027164  18.0501205   3.4967529  16.6877464  18.0970652   2.5940716
  16.4040283  17.4402792   3.9279091  39.1437650  75.8468151  92.5477982
  39.9601269  75.4825735  92.2055721  38.4591866  75.2891445  92.1782207
  81.2508536  75.1410730  36.9186508  81.0623217  74.2757185  37.2817528
  80.4519082  75.3836854  36.4506161  45.2868417   7.6055462  50.3402149
  45.2242902   7.0897943  49.5362675  44.9664357   8.4731895  50.0936901
  60.5007601  50.7636070  89.7752190  59.6994448  51.1235857  89.3950367
  60.4375982  49.8213291  89.6191692 106.2491776  18.2837088  17.9618561
 107.1936824  18.1723625  18.0702412 105.8765413  17.4442799  18.2315457
  14.2344153  85.8800316  90.9398460  13.7381136  86.5674686  91.3840771
  14.1835511  86.1094284  90.0119305  15.1149658   0.5425245  26.1190903
  15.9793142   0.9179718  25.9512436  14.6308568   1.2423498  26.5573990
 107.6948096   1.5420849  34.3256390 106.7804171   1.6079790  34.0503513
 108.1924249   1.5524036  33.5080158  94.2281247  73.3171113  57.1766007
  94.3693686  74.1528137  57.6214420  94.4012786  73.5045822  56.2540447
  74.6172428  42.4827909  80.9011936  73.7065315  42.7590799  80.7987022
  75.0773859  43.2738400  81.1818123  92.8452397  93.6577256  17.2854149
  92.6177741  93.4995730  18.2016480  92.1300174  94.1989119  16.9510472
  70.3349424  86.7375047  37.2760403  70.8337570  86.4374836  38.0359184
  71.0010911  86.9932063  36.6380036  59.6323919  67.9232836  85.6887245
  59.6151304  66.9703531  85.7773876  60.2239466  68.2175875  86.3813210
  98.4560586  95.5024416  50.6776058  98.5996438  95.0644429  51.5165150
  98.7496758  94.8686345  50.0231564  51.1164048   1.4832003  26.8627464
  51.6157487   0.9227163  27.4566662  51.1398652   2.3477585  27.2728932
  46.3261225 104.6258624  21.8498337  46.5846064 103.8652451  21.3293755
  45.8854964 105.2037985  21.2268936   0.6343630  12.7791149  81.5910732
   0.8953098  13.3988363  82.2723019   1.3390759  12.1315700  81.5736591
  77.9239178  63.0743837  92.3646832  77.9221058  63.5777712  91.5505409
  77.6235676  62.2025585  92.1078968 101.2605049   6.5008003  27.2905743
 100.8120991   5.6556303  27.2613251 102.1226765   6.3277132  26.9125092
   6.8273547 104.8793204  45.5233395   6.3993170 104.3844826  44.8246586
   7.1560481 105.6678660  45.0916207  74.5419931  71.1226606  84.5943069
  75.4986095  71.1184025  84.5610619  74.2818642  71.7547941  83.9242554
   7.3990539  41.1700994  29.4637310   6.8852952  40.6002790  28.8913738
   8.1959775  41.3536055  28.9662659 110.0623466  14.8764927   2.7886879
 109.3991567  14.5589668   3.4015381 110.4576756  15.6274254   3.2314598
  41.8951944   9.0403253  10.8915245  41.0539106   8.6865551  10.6028759
  42.3057226   8.3208162  11.3711083  26.5892318  35.1723463  45.1557076
  26.3882736  36.0090238  44.7364056  26.1869672  35.2358419  46.0219586
  39.2425254  11.3239366  17.2685539  38.4015373  11.2396938  16.8192494
  39.8165134  10.7022650  16.8209946  44.7841409  19.2768127  12.3578655
  43.8533548  19.0893824  12.4792587  44.9443773  20.0524218  12.8954422
  47.0806742  54.0048742  89.1672421  46.8388700  53.7229633  90.0494480
  46.8315887  54.9285078  89.1342449  45.1422265  14.8679382  26.2697422
  45.1110891  14.8206598  25.3142178  44.2242673  14.8506195  26.5404427
  28.1823734  20.8905680  41.2352383  27.6069215  21.6348345  41.0587418
  27.6433090  20.1217014  41.0495388  18.6683706  29.9418432  26.2153732
  18.6692384  30.2207930  25.2997124  17.9791311  30.4650862  26.6244995
  85.9349776 100.8278115  13.7590992  85.8931733 101.3629611  14.5516312
  86.6535283 100.2163918  13.9205849  32.1647743  39.8521883  23.9035427
  31.9108394  38.9398844  24.0430081  31.5367225  40.1798899  23.2598030
 100.6585457  31.2436468  32.7141487  99.7290398  31.1349184  32.9152214
 101.1085178  30.6975538  33.3587753  36.1492685  26.3926441  26.9829476
  35.6722120  26.4872581  27.8073895  36.9986251  26.8014414  27.1494305
 107.5024964   8.9324076   3.5829556 108.0740835   8.7365467   2.8405583
 106.6739322   8.5046989   3.3666813  42.7587128  76.1006403  84.7691822
  42.9363155  76.6933250  84.0388298  42.6914692  75.2356625  84.3647957
  19.3375972  27.4466688  15.8986294  19.7894815  27.1177942  16.6757214
  19.7569850  28.2873995  15.7155430   5.3176502  11.9812805  46.6103089
   4.5457176  12.4858124  46.3537800   5.9455016  12.1277601  45.9027970
 104.6008540 103.8778241  27.6510822 105.4514981 104.2913468  27.5039780
 103.9749385 104.4556887  27.2145855  25.2050211  87.2156127   3.5111630
  25.0178626  86.9910557   2.5996887  24.3855669  87.0409186   3.9739906
 100.1275613  17.7929336  33.8161194  99.4744469  17.1664078  34.1277802
  99.7060777  18.2301695  33.0762493   6.4937261  42.6328642  22.3798763
   6.9346765  42.3391706  21.5826618   7.1796134  43.0674917  22.8867161
 100.8288766  93.1457050  32.2153485 100.5028678  92.5025065  31.5858662
 100.5107356  93.9861090  31.8855965  33.3124402  33.4918577  28.1262886
  32.4322656  33.8648016  28.0769074  33.7712816  34.0438730  28.7595188
  11.5902713  23.4803707   5.9867108  12.4354032  23.6489565   5.5700981
  11.3514617  24.3148548   6.3902390   0.0195410  94.0949852  22.0064079
   0.9093525  93.9187129  21.7007935  -0.3282402  93.2344277  22.2403347
  73.4801531  74.8663235  55.7931566  73.8117695  75.7631254  55.8380032
  74.1807079  74.3729687  55.3664732  26.6717914  10.0575764   3.7653172
  26.9997600   9.1599924   3.8202107  27.0672038  10.5032904   4.5144570
   1.6882660  93.4423049  51.0202515   1.5225174  93.4215672  51.9627583
   0.9000685  93.8369114  50.6470692  99.7867824  21.9233686  11.3224518
  99.8370578  21.0217173  11.0050690 100.6996538  22.1968014  11.4126026
  27.2906545   5.6519443  18.3171093  26.4502052   5.1938517  18.3119118
  27.2693303   6.1825020  19.1135227 110.9041382  17.2041876  12.4972164
 111.8139817  17.5014908  12.5023377 110.9466411  16.3087637  12.1615898
   7.8681997  13.2500822   4.0233814   8.2909969  12.4956972   4.4337189
   8.4633497  13.5038168   3.3179390  99.9594689  82.2730262  31.5137970
 100.4520083  81.5874751  31.9650852 100.4653359  82.4486001  30.7203877
  22.1954015  13.1883985  21.6388714  22.5513938  12.3076898  21.7565643
  22.1083501  13.2868177  20.6907379  38.7601283  22.0641119  31.3302052
  37.8418544  21.9600708  31.5795624  38.7608245  22.8029234  30.7216084
  88.1495762  30.4748368  79.4118118  88.2644463  29.5523691  79.6400404
  88.3775234  30.5220389  78.4833479  89.8502065  90.4251869  48.6357224
  89.6923161  89.7040279  48.0264389  90.7979251  90.4220731  48.7700951
  68.7560415  70.7144976  85.2357864  68.7966156  70.9924698  86.1508369
  67.9151106  71.0467100  84.9216175 107.1563531  67.5425489  16.5693962
 106.7113353  67.7820785  17.3822987 107.8694869  66.9676454  16.8471634
   6.7294839   5.4956276  13.5535919   6.9959214   5.5421860  14.4717800
   7.0169643   6.3279278  13.1782829  60.4957128  88.6631997  44.8794949
  61.4515639  88.6500008  44.8304569  60.2867437  89.5203812  45.2507031
 111.1830904  32.4994833   9.8807823 111.6330101  33.2315237  10.3026020
 110.2625276  32.6169664  10.1153004  99.5394374  90.9454067  27.2851383
  99.1155196  91.0482342  28.1371700 100.4483224  90.7299359  27.4942791
  94.9709035 102.6901562  30.0039017  94.4926167 101.8960459  29.7654354
  95.4840613 102.9037983  29.2246353  24.8796344  43.3747768  90.9415531
  24.9049854  42.4214506  91.0237598  25.2091336  43.5479832  90.0597000
  23.5735610  26.0297806  35.8710587  23.0935148  26.1102230  35.0468552
  23.7367442  25.0910408  35.9625542  99.2142106  97.4429972  24.8941338
  99.7521926  96.6565878  24.9855911  99.7792722  98.0683072  24.4403469
 112.7640582  93.5524685  26.0293877 113.4831763  93.7025960  26.6430390
 113.1881381  93.4933169  25.1732933  99.2536021  85.8613069  16.2914669
  99.8630191  86.4583261  16.7255318  98.6097670  85.6442864  16.9657147
  19.6241190 104.3956931  36.2804043  20.0003817 103.5173829  36.3371956
  20.0216296 104.8740609  37.0079815  59.8999166  79.6660948  73.2785177
  60.7384014  79.3384886  72.9531717  59.9574041  80.6159306  73.1749058
  29.6749309  47.8856928   0.4403507  29.5189336  47.9547865  -0.5015171
  30.4841760  48.3758242   0.5856907  95.1978017 103.0332787  44.2459881
  94.6711350 102.7973349  45.0096523  94.9385644 102.4042780  43.5726463
   2.7106001  92.0009072  47.0138848   2.6134016  91.7055614  46.1085999
   1.8328955  92.2855861  47.2684967 111.9443084  16.2657148  31.0707390
 112.2385456  15.3883202  30.8261311 111.6110017  16.6422970  30.2562916
   7.8013374 104.6842098  76.0115337   8.4555008 104.3107605  75.4209137
   8.2101585 104.6467018  76.8762255  19.7246602   6.4143450  15.9298241
  19.6840003   7.3342163  16.1913979  20.5234531   6.3492424  15.4064476
  13.6296226  39.5305276  66.9647789  12.6953270  39.5056891  66.7580843
  13.7079288  39.0343809  67.7796030  12.3759130   4.8381407  46.2344849
  12.8219035   4.0566570  45.9079754  12.7366832   4.9711544  47.1110642
   1.1664942   7.5083382  13.6107552   1.4492062   7.2843105  12.7241242
   0.9468082   6.6674072  14.0117657  93.7460996  52.8127756  35.9531510
  93.9570475  53.6484843  36.3694775  93.7802840  52.9973944  35.0145542
  64.7137788   0.4304487  22.1444523  64.5482877   1.3523371  21.9470608
  65.0449041   0.4335052  23.0425465  52.1726278  23.3487112  21.1173641
  51.4635995  23.3776314  20.4749596  52.7199033  22.6150782  20.8371842
  48.1086210   5.2572185  22.4446976  47.1890977   5.5112917  22.5231754
  48.5961488   6.0411150  22.6977741  82.2887707  56.0569715  75.8178282
  82.5180054  55.6154490  76.6355944  82.7987099  56.8669081  75.8318281
  29.4752219   2.0510132  30.8309567  28.6503890   1.7019445  30.4932701
  29.2275670   2.8601534  31.2783825  15.7650331  28.7861902  71.2110531
  16.6195205  28.7038309  71.6345036  15.9649232  29.0882284  70.3250324
 106.7139436  67.9479451  50.8721554 107.3299600  67.9498560  51.6047871
 106.7172910  68.8507373  50.5540573  29.7466636  48.1159735  72.7260113
  29.4830751  48.1490946  73.6456060  30.4967356  47.5214529  72.7131128
   1.6266301 100.4598982   5.7888329   0.7738306 100.4139073   5.3565705
   1.4714434 100.1030047   6.6633427   3.6480286 105.7955153  50.2775871
   3.9448693 106.6090472  49.8698055   3.1907608 105.3296406  49.5775139
  46.4346364  11.1153871   4.3712055  46.2017968  11.5659315   5.1830113
  47.2500661  10.6580526   4.5764839  23.3814195  57.4975283  32.7291691
  23.9717916  57.7215845  32.0098030  22.8908971  58.3023817  32.8959953
  87.5588036  65.1215060  47.9341137  87.4880935  65.3383679  48.8637364
  88.2726861  64.4853599  47.8901970   2.4176123  80.4071767  27.7347195
   3.2452967  80.8851631  27.7866184   1.7733910  81.0012753  28.1197560
  74.7956873  76.5989072  15.0703156  75.4472733  76.7847068  15.7464420
  75.1602960  76.9847806  14.2738259  58.3128881  28.9013195  89.5146465
  58.1661654  28.2669067  88.8130569  59.2363167  29.1396642  89.4327736
 108.5784198  85.9728105  33.8861763 109.3505336  86.1578257  34.4208157
 107.8700496  86.4539797  34.3138706   4.6042254  77.1873195  14.0152466
   4.7884371  77.1725781  14.9544346   5.0035956  76.3845189  13.6802113
  82.1705403  11.0168297   7.8837120  82.9860629  11.5175945   7.8640377
  82.1678557  10.5309851   7.0589840  21.5605021  46.9912815  80.7757950
  21.5249038  46.1993361  80.2393341  20.6902003  47.0532274  81.1694622
  63.5848761  39.1867280  83.9633751  63.5386944  38.6058998  84.7228050
  64.2062569  39.8679757  84.2203045  71.8998051  20.6169796  90.6548595
  70.9807682  20.6572843  90.3903294  72.2080326  21.5207553  90.5883980
  83.3534098  80.8659441  46.5994751  84.1990186  80.4589398  46.4110100
  82.8936768  80.2236850  47.1401989 103.4455872 100.9859021  27.8182995
 103.8449193 100.4003842  27.1749222 103.3285237 101.8123801  27.3498356
  84.5304538  53.4856951  56.5995800  83.9486457  53.2802764  57.3313820
  85.2327395  54.0054783  56.9905483   4.7108749   5.0558788  29.5413124
   5.4617551   4.6650679  29.0944588   4.0891889   4.3348152  29.6403324
  29.4730380  21.8893082  13.9479363  30.2925971  22.3131926  14.2026531
  28.7954429  22.5314791  14.1593849  64.2005730  26.7846656  75.6634235
  64.4819832  27.3080182  74.9129963  63.6876869  27.3900867  76.1988211
 112.2859717  83.5376055  11.4817631 111.4270974  83.6837990  11.8782437
 112.6058627  84.4152529  11.2728703  93.0918885  89.5211036   4.6974575
  93.0491687  90.4133780   4.3535816  94.0283633  89.3333061   4.7605335
  88.6161185  83.7044771  19.4126141  88.5263396  82.8865631  19.9016869
  88.1721068  83.5365112  18.5814297  69.5198251  92.7039511  45.6135571
  68.7494779  92.8302367  45.0596153  70.2591349  92.7349145  45.0063622
 100.1586867  69.6608801  10.7191097 100.9632350  70.1115735  10.9756481
 100.2967978  68.7526424  10.9879315  90.4100848  90.7709868  33.0556214
  89.8691846  90.2703125  32.4448883  90.7926179  90.1107199  33.6335003
  32.1063569   3.8414413   0.1734459  32.9943469   3.4970457   0.0780594
  31.7561153   3.3911879   0.9420979  65.8251525  73.6943252  32.1853172
  65.7026649  74.5831902  31.8519222  65.0468279  73.2196887  31.8934929
  25.8929542  15.3567869  16.5788471  26.4878801  14.9734575  17.2233212
  25.3523591  14.6232206  16.2858307  91.3553573  74.0812666  18.7562477
  90.5185462  74.2168839  18.3117497  92.0146752  74.2920477  18.0951130
 110.3799630  76.0657985  23.1408417 110.9966803  76.7948539  23.2069409
 110.8460427  75.4033167  22.6308262  87.9974223  99.1823752   5.3504097
  87.6622773  99.3367465   6.2336266  87.4102832  98.5213692   4.9835694
  83.7371827  72.5517864  40.2131092  83.1476594  72.2881098  40.9196293
  83.7717820  71.7908151  39.6334946 111.8744756   9.4660074   5.0644600
 111.3303329  10.2517158   5.0115311 111.4710905   8.8534243   4.4494354
  91.8216515  85.3684337  23.9951908  92.5164796  85.5877574  24.6159565
  91.0261012  85.3391941  24.5266735  96.7302562  98.0461724  34.9049675
  96.2589980  98.3695681  34.1371357  96.5494395  98.6930211  35.5869686
  29.0788538 102.6012738   6.9713890  29.6010173 101.8401034   7.2247517
  28.1952430 102.3985703   7.2785961  18.7910559  61.6199399  26.2797844
  18.7301257  61.1477734  27.1101963  18.0198195  62.1867914  26.2694275
 102.7346755  96.2846596  23.5738194 101.9472934  95.7507641  23.6797630
 103.3415080  95.9501584  24.2342007 110.2530671 103.3696539  19.3508160
 109.4978143 102.7823813  19.3813431 111.0005475 102.7909405  19.2005074
  42.1348619  15.9707367  91.1167336  42.2973156  15.6159282  90.2426910
  43.0074501  16.1290693  91.4769459 112.6001145  16.8285496  15.7084572
 111.6601421  16.9958002  15.7771027 113.0044867  17.5100548  16.2453663
  84.3319321  16.3109589  56.2353992  83.4040546  16.5365028  56.3017845
  84.6616173  16.8601680  55.5241299  82.0797540 105.6903059  13.8627541
  81.7799188 104.7864659  13.9597046  82.1287490 105.8262093  12.9165184
  21.5636542  68.9147229  32.4886524  21.0376933  69.1304953  31.7185509
  21.1358740  69.3785162  33.2084667 102.8089810 105.7319672  26.4683449
 102.0425034 105.1628239  26.5377819 102.4472571 106.6003354  26.2913525
   6.5240672  58.2560597  16.7011273   6.8286517  59.0402563  16.2445175
   7.1726897  58.1131111  17.3903954   2.3263934  44.8916663  41.8519509
   2.4929192  45.6326170  42.4346077   2.2997954  45.2769555  40.9761154
  99.1312791  95.7242663  34.7633183 100.0459958  95.9940417  34.6811688
  98.6316157  96.5315850  34.6416676  57.6340866  34.2154622  75.8658886
  57.1275949  34.3432307  76.6679955  57.0615578  34.5336008  75.1678658
 101.1072709  34.1756136   1.8086636 100.1868703  33.9628107   1.6543686
 101.5622451  33.8475019   1.0330498  32.9157019  24.5859551  83.3556271
  32.1848893  24.4829941  83.9651775  33.4634304  25.2642441  83.7507915
 108.9002110   6.7452890  18.9620506 109.0974523   6.5446121  19.8769581
 107.9625513   6.9376070  18.9557945  50.4449991  17.1905500  48.6278546
  50.0159028  17.2518284  47.7744209  51.1471322  17.8400261  48.5900891
 103.6737777  77.5783165  15.2856934 104.1847754  77.2394187  14.5506680
 102.9629184  76.9466193  15.3946602  16.4291957   8.1498081  23.4578430
  16.1988500   7.2288639  23.5804379  16.7810634   8.4234983  24.3049061
  10.8102610  87.1922095  11.0111916  11.2615874  86.8417223  11.7791092
  11.5066054  87.5771935  10.4790985  93.0988026  35.9582479  11.9045555
  93.7005044  35.7168503  12.6087677  92.2436524  36.0186083  12.3303616
 111.5895892 102.5201781   0.6419480 111.1166430 101.6924317   0.5559837
 111.9428254 102.6860936  -0.2320755 102.3963978   0.8580524   2.2321713
 102.1886660   0.2141745   1.5550434 101.7719843   0.6768019   2.9346573
   5.9750845  78.0346138  31.7848503   6.6150668  78.7173827  31.5836537
   5.6764224  77.7266223  30.9291851 112.3733044 104.1408427   5.5137360
 111.7257739 103.4957297   5.7979214 111.8537808 104.8949893   5.2351772
  20.6808284   2.3019440  42.1988976  21.0704091   2.0254118  41.3694393
  21.1819366   1.8338329  42.8667175  43.1450418   1.0918362  35.6532395
  42.2986368   1.0090525  35.2139485  43.5646871   1.8384773  35.2258598
  75.8157087  64.6817465  40.7950890  75.5056811  63.8004572  41.0035240
  75.0376893  65.2339275  40.8726418  80.5544713   1.1923296  37.4716103
  80.8101991   0.5505068  36.8091213  80.2760080   0.6654198  38.2206547
 112.5630284  58.3151085  15.7680714 111.8961287  57.8944416  15.2253830
 112.6097966  57.7714227  16.5544903   4.8846056  80.2671440  35.5250656
   4.3251851  79.7904522  34.9118435   4.4743826  81.1284072  35.6036484
 109.2274714  67.9327209  52.1954071 110.0343037  68.2991381  51.8334686
 109.4210482  67.0035763  52.3197090  52.9649401   6.9115913  78.9649582
  53.0914879   6.0621786  78.5422087  52.6541853   7.4842137  78.2636976
  61.9125080  17.6748908  81.3142109  61.9931698  17.5648654  82.2616482
  61.3532782  16.9497132  81.0356331  13.0663016  56.3329024   1.9178593
  12.6601412  57.1539773   2.1955311  13.0482867  56.3681991   0.9614765
   1.1708071  86.8943794  19.3611538   0.8811381  87.6967223  18.9269077
   0.7655766  86.1891849  18.8564503  21.7274665  99.0802992  91.1871910
  21.3384389  98.3655918  90.6831169  21.7378997  99.8220409  90.5822563
  35.9884599   2.5636417  21.0346138  36.8950609   2.4086363  20.7695210
  36.0588506   3.0631763  21.8480885 101.3663865  53.4322297   8.7867272
 101.6302110  52.8591475   9.5065987 102.1608353  53.9170473   8.5630524
  70.0710321  68.8022001  21.2714207  69.9852730  68.5889049  20.3422367
  70.9184957  68.4358377  21.5240395  91.0165072  84.7605832  19.1619503
  91.3117553  85.0121434  20.0370323  90.1200868  84.4509108  19.2914402
  77.5152112  74.4346793   7.5864899  76.7082740  74.0233762   7.8961956
  78.1211663  74.3582184   8.3235180  93.6926270  89.7221644  29.7959053
  93.9684583  88.9663084  29.2774117  94.3703223  90.3798802  29.6397793
  55.7702804  90.7294972  12.4796593  55.1578189  91.3643320  12.1080315
  56.6202105  90.9739883  12.1134960  72.4523783  63.9024973  88.8438702
  72.3181629  64.5074034  88.1142712  72.1042299  63.0678654  88.5301495
 108.1768705  14.5068104  13.4488022 109.0558173  14.7507364  13.7389576
 107.6194574  14.6706182  14.2095196  99.3616868 105.3867037   1.7373001
  98.9901877 105.8394558   0.9801781  99.2058230 104.4587548   1.5616810
  94.2444468  88.1395466  47.6697933  93.8293172  88.1516488  46.8073857
  94.5584060  87.2410853  47.7718937  92.7531006  24.2953331  27.9658234
  91.8300606  24.0437538  27.9964459  92.8017570  25.0923616  28.4936535
 108.0584002  97.5382025  42.7457249 107.8829146  98.3626826  43.1992352
 108.0686999  97.7727540  41.8177616  97.1827937  88.2262404  51.7065441
  96.6497947  87.8050311  52.3808872  96.5483714  88.5478361  51.0659897
  98.8502360  97.8358967   2.5465977  98.4636212  98.2475264   3.3194649
  99.7862292  97.7912886   2.7419388  92.8865195  87.2404153  42.9520142
  92.1399785  86.6552432  43.0803883  92.7742577  87.9210074  43.6156571
 112.4584819  91.6170628  23.2751953 113.3605815  91.4640529  23.5563290
 112.3111726  90.9734852  22.5821316  80.2418232  24.0039968  80.7584381
  80.4970837  24.7908020  80.2767658  79.2870188  24.0517306  80.8063698
  33.4805396  10.1174957  10.3956520  33.4159234  10.0437672  11.3478195
  34.3793252   9.8559696  10.1956188   4.0278962   5.1430447  22.8430092
   4.4902852   5.3853208  23.6453449   3.5464719   5.9327156  22.5962650
  79.3234634  41.6010237  61.3303709  78.3688498  41.6154814  61.2615585
  79.6279287  42.0229101  60.5269098  51.8926954  45.3904057  85.6723976
  50.9591484  45.4864645  85.4839993  51.9650936  44.5340824  86.0939407
  67.9001808  36.8777108  92.2735214  68.7081432  37.2057891  92.6682186
  68.0664015  36.9032264  91.3312054  13.7350085  71.3430197  27.9752075
  14.1407969  70.5957134  27.5357735  14.1554263  71.3727231  28.8346302
  62.3641920  42.5520182  84.7357368  61.5727329  42.3145962  84.2525578
  62.4760056  41.8470240  85.3734779   8.6144831  76.7595656  42.0399773
   8.4987643  75.8395774  41.8023503   7.7644160  77.0250494  42.3908913
   5.1601317  95.4757674  18.3109963   5.8833315  95.8827813  18.7880242
   5.2867224  95.7515605  17.4031746  19.7125723 101.9849999   8.2620823
  20.0891211 101.3299449   7.6744187  18.8706973 102.2075779   7.8646671
  76.7507149  77.2546012  13.2070458  77.0450021  76.5034444  12.6918804
  77.1254731  78.0133779  12.7597820  88.1499672  28.4586334  74.4297266
  88.2289982  29.4049454  74.3093872  88.0286884  28.1139898  73.5449982
  96.8832017  80.5117352   2.0148480  97.0682336  80.7442434   1.1049473
  96.3940430  79.6909554   1.9575989  71.2939859  93.1727345  10.6569302
  70.3554726  93.2873733  10.5076515  71.3481618  92.6915033  11.4825833
  45.4889158  26.3683397  23.8328468  45.1439336  27.2304422  24.0652477
  46.4089158  26.5274317  23.6218464   5.4777243 101.4370520  18.4576142
   6.1076357 101.2526305  19.1543400   4.6599486 101.6258032  18.9178860
  80.4393864  58.3069034   7.9105198  80.6217099  57.8846504   7.0710575
  81.0145236  59.0719355   7.9237282  88.1287862  82.6548250  48.0175697
  87.3324920  82.3405654  48.4458172  88.8357306  82.4023635  48.6114800
 112.8485299  72.8540463  13.2359135 112.9422236  73.6402733  12.6980412
 113.3129121  73.0617948  14.0467274  98.5935737  68.1837506  31.7316067
  97.8765202  67.7471299  31.2718022  99.1828061  68.4742744  31.0354530
  61.9673589  30.1415045   6.8074143  61.7917207  30.2015669   5.8683884
  62.8291181  30.5437452   6.9161045  90.2761556  98.4857161   3.9196312
  89.3716765  98.6101611   4.2071449  90.5394078  97.6527579   4.3109238
  70.9726096  89.8647220   9.9510967  71.2766934  88.9692433  10.0990116
  71.4832402  90.3951747  10.5627358 101.9371750   4.6635801  21.8808949
 101.4671256   5.0772316  21.1568939 101.5633799   5.0610763  22.6673424
  40.5524683  35.0704098  86.4842319  40.8854103  34.1789341  86.3810253
  40.3010559  35.1269650  87.4060917  80.1801300  34.1520286  89.4426727
  79.5055008  33.5654235  89.1006279  80.0499344  34.1396832  90.3909016
  17.3353675   5.9737236   2.0360863  16.9365075   5.2127535   2.4580681
  16.8533901   6.7224152   2.3873531  28.6828378   8.8692982  19.9941456
  28.0858138   9.4513113  19.5239842  28.1146673   8.1984407  20.3727829
  52.4585819  84.3840218  83.6596203  51.8915606  84.9790478  83.1690598
  52.0511866  83.5241985  83.5549259  12.7406313  91.0818155  24.4530213
  13.3967402  90.4495151  24.7461807  13.2178881  91.6668446  23.8646423
   6.0209802   7.5506145  46.0075009   6.2016490   8.2152016  46.6722786
   6.6686919   7.7150757  45.3221905 111.8422557  67.5659747  27.1088898
 110.9872151  67.8342564  27.4452793 111.7593385  66.6227062  26.9688809
  81.6417456  79.3905432  19.4378388  81.8064643  80.1664169  18.9020073
  82.4588967  79.2523558  19.9168026  95.0025798  64.3049617   7.2090828
  95.4955245  64.6118672   6.4481365  94.8784352  65.0878246   7.7456867
 108.3189774  70.8014746  40.1455795 109.2060281  70.5629785  39.8763287
 108.2000686  71.6923232  39.8162090  54.4405842  24.6022582  64.9028921
  54.7145081  25.3229666  65.4701471  53.8992882  25.0180697  64.2318249
  96.4989616   1.8254024   7.7580082  97.3985936   2.1442921   7.6859009
  95.9674646   2.6192791   7.8172123  91.3784552  93.2421119  32.0299446
  91.1957789  92.4202902  32.4854290  90.5825520  93.4203084  31.5289223
  67.4019266  75.6660516  39.0624535  67.9584671  76.4078386  39.2996132
  66.6882397  75.6886323  39.6999275 106.9831658  85.7757504  41.6100037
 106.3667823  86.4064271  41.9822228 107.5852776  85.5774124  42.3271858
  84.5402671  67.5864441  25.4568684  84.8510552  66.7375560  25.7715618
  85.3376771  68.0625851  25.2252304  82.5771713  18.6622059  76.1570597
  83.2005596  18.0386782  75.7844734  82.4075890  18.3329296  77.0396948
  90.4423810  89.4645412  22.3875343  91.3692141  89.5058091  22.1519482
  89.9840070  89.7963102  21.6154873   4.7332766  79.5401509  24.6875298
   4.5470717  79.9487526  25.5328762   5.6499579  79.2713506  24.7481644
   5.8486129  32.2333288  88.8097668   6.7736007  32.4762940  88.7698364
   5.4236557  32.9776049  89.2360306   1.0304215  91.4735348  34.2200482
   1.2134602  91.0465391  33.3831513   0.3016951  92.0652230  34.0327179
  35.7500699   4.6188433  47.4642574  35.2589038   4.0162355  48.0226910
  36.5992025   4.1941816  47.3423016  85.1058675  73.2607706  10.9286892
  84.5622159  73.7392170  11.5546047  84.4874383  72.9332192  10.2756321
  64.5625448  17.4528813  63.5561466  64.7550058  17.2354615  64.4682455
  65.3168297  17.1239090  63.0672121  93.6357308  85.8981545  26.2507450
  94.3575335  85.3646476  26.5833199  93.9972115  86.7827780  26.1959469
  84.3544293  96.5929348  21.7417824  84.6705914  96.9893057  20.9299004
  83.7203980  95.9351761  21.4561474  89.5919038  76.9274290  23.8398087
  89.8752118  76.8092806  24.7464573  88.8244820  76.3619478  23.7530529
  69.0723801  62.2930717  90.2973175  68.7483883  62.4061155  89.4037342
  69.7589588  61.6304731  90.2211189  77.4979258  80.6734474  17.6890003
  77.9241324  80.1191099  18.3426773  77.7114368  81.5672143  17.9570019
  62.1583582  84.3905718   5.5007946  62.0494486  85.1324732   4.9058544
  62.8345443  83.8516147   5.0902664  58.1792978  23.5698349  20.3404152
  57.2983793  23.3596117  20.6502926  58.0781225  23.6931211  19.3965923
  55.0162888  89.7136116  89.9887943  55.7698631  89.5842934  90.5646706
  55.2050495  90.5306053  89.5271397  26.5211012  91.9065745  15.4279339
  27.4388983  92.0259841  15.6721127  26.5513995  91.6207535  14.5149052
  79.8850251 105.4281409  46.1247742  80.7646514 105.8037360  46.1623680
  79.3526412 106.0102971  46.6668999  46.9056225  47.6265860  80.7822418
  47.4262810  47.4332190  81.5618324  46.0035133  47.4446249  81.0455227
  78.0325986  67.7662964   7.6622021  77.8824092  67.5537021   8.5833370
  78.8501979  68.2640536   7.6615059  79.7669935  83.5349941  92.1393681
  79.2506552  83.6918259  91.3487720  79.1194153  83.3119774  92.8080463
  33.2441190   8.9744598  13.0557739  32.4902824   8.5743267  13.4891903
  33.7408546   9.3808348  13.7659466  53.9224243  13.8484371  90.5343533
  53.1772995  13.8962448  89.9354172  53.5638809  14.1057992  91.3837337
   4.9807123  42.8953249  14.1650021   5.7154802  42.3153383  14.3649113
   5.2855638  43.4221823  13.4262764   9.8631480  82.5593956  20.5948651
   8.9149477  82.4560721  20.5144703  10.1283839  82.9804046  19.7771656
  14.7810080 106.3320954  37.9264748  15.2655318 107.1020157  38.2242882
  15.0987627 105.6197484  38.4812939  79.5879126  52.5936727  28.1714165
  79.7293568  53.0989065  27.3708164  79.3860389  51.7098249  27.8643429
  64.3249799  99.6763213  27.6066315  64.7459746 100.2017291  26.9262325
  64.5681144  98.7744267  27.3975670 101.0711432  98.6169989  22.7682411
 100.6007005  98.3813221  21.9686329 101.6271640  97.8596051  22.9510605
  58.9397478  32.6964641  87.6589012  58.2408524  33.3450556  87.7431583
  59.3102741  32.8550363  86.7906857 108.6621286  13.4780104  27.6365387
 109.0577652  13.7432796  28.4668076 107.8793503  12.9887468  27.8897392
  91.0772086 104.9160082  34.2784416  91.6174889 104.2113812  34.6359551
  91.6591645 105.3836281  33.6793625  79.8424865  60.2492417  26.0547173
  80.6437922  60.3312160  26.5718472  79.4124223  59.4676454  26.4016735
 101.9406176 106.5236933   5.4856503 102.2379065 106.4182599   4.5819199
 102.7471495 106.5838702   5.9976303 107.4367810 103.7784178  26.0325539
 106.8990374 104.5301850  25.7837402 107.0630980 103.0446370  25.5445397
  81.1417676  66.0723026  47.4455273  81.3629437  66.6828604  48.1487572
  80.6664182  66.6041620  46.8072521  92.8632832  88.0697830  20.1588928
  93.1524754  87.9812510  19.2507374  92.9737283  88.9999731  20.3558361
  19.1404345  74.1272051  54.3188011  18.2886794  74.2709644  53.9063847
  19.5479014  73.4387763  53.7931835   7.5521376  98.8936980  14.1601956
   6.7915537  99.4354708  14.3705284   7.2025874  98.1940777  13.6083042
   5.6208708  89.7275574  35.2154171   5.0776961  90.5056174  35.0896561
   6.4232638  89.9142821  34.7280514 105.8488942  86.3603504  21.5449440
 106.4335347  85.7368572  21.1140263 106.4176751  87.0884211  21.7952168
  94.8421622 105.4423220  24.6655762  94.9441911 104.5854313  25.0797760
  95.5265952 105.9823687  25.0607121  76.4573526  40.3175402  84.3115997
  75.6611013  39.8167682  84.4889069  76.2924719  41.1757803  84.7020721
  98.7301493  75.4994280  18.7948811  99.1387463  74.8597629  19.3780720
  99.3723203  76.2059791  18.7268173  82.8546096  63.4412105  33.2583916
  83.0416585  62.5654883  32.9202282  82.7540971  63.3170916  34.2021763
  94.1977406  74.8444397   2.0472538  93.6763717  74.2487700   1.5091240
  93.7009765  75.6626422   2.0488846 100.3348542 100.7148964  31.3270390
  99.6131707 101.0154183  31.8793976 100.0655843 100.9414847  30.4368794
   0.9223512  10.8325846  48.7430966   1.8193486  10.6998712  48.4364807
   0.4221895  10.1269562  48.3330261  99.9763299  72.9782612  32.8552735
  99.0940190  73.2457061  33.1126129  99.8379327  72.3158057  32.1783459
  64.8931074  23.0306649  80.5199242  65.2070570  23.8540602  80.8936691
  64.4042015  22.6160002  81.2307358 107.3107816  81.5256102   2.0716488
 107.0896102  81.9635851   1.2497627 106.7348433  81.9294889   2.7208054
   5.3672984  87.0676119  21.3069737   6.0041525  86.4010007  21.5644371
   5.8580115  87.8891475  21.3298046  32.8659871   6.7038805  50.3625977
  32.3531488   6.2324125  51.0190594  32.2304109   6.9413740  49.6874058
  34.4148496   1.0789043   8.2506954  34.1046956   0.2140266   8.5190785
  33.9298347   1.2687094   7.4475968   8.0609419  91.1066682  11.4453900
   8.0233386  90.1697261  11.2531578   8.7688734  91.1919315  12.0839798
   9.6842101  95.3892071   7.3476040   9.1798212  94.5756848   7.3501885
  10.2281477  95.3312857   6.5621006  99.9350072  98.5947115   8.5896694
  99.1392947  99.0506966   8.8638031 100.6027270  99.2795451   8.5523808
  27.8850892   7.2539932  13.6076653  28.0245117   7.1280176  14.5462429
  28.0626157   6.3961489  13.2218945  44.9964574  30.0897009  18.8788044
  45.8571962  29.6950418  19.0188133  44.9922136  30.8619768  19.4443237
 104.8698569  98.0037386  23.5657894 104.1408015  97.4608309  23.2658493
 105.2999211  98.2930787  22.7610790  26.4767841   7.1175749  20.5035984
  25.5565265   7.3778803  20.4636585  26.5769437   6.7239315  21.3703453
  74.4822121  58.0220366  92.4077415  74.1152096  58.7597036  91.9205093
  75.4073811  58.2426882  92.5154686  94.4888926 101.4127429  49.1060269
  93.8193894 100.7408173  48.9774906  95.2320767 100.9414132  49.4825279
 108.8162423  93.9960892  34.3244660 108.9704181  94.5561059  33.5636437
 108.0866195  94.4117720  34.7839176 102.5763417  63.2437993  37.3586952
 102.8059483  62.3348213  37.5517571 103.4155751  63.7036974  37.3384106
  73.4893013  75.0134094   7.3904431  73.8763786  75.0614769   6.5163147
  72.9882050  75.8245285   7.4754250   6.3500693  96.8447669   5.3936875
   5.8860781  96.1288054   5.8276665   6.2397578  96.6699488   4.4590676
  18.8036730  86.6845830   6.8562901  19.3373110  86.8854458   7.6251232
  19.2329218  85.9274061   6.4579689  78.3907176 101.2205870   8.5055744
  79.0188552 100.7573016   9.0596878  77.5342728 100.9405739   8.8285744
  25.6595805   0.8770878  36.4846909  26.0745958   1.2403042  35.7023441
  25.7613853   1.5592272  37.1484291  44.8286819  30.9423518  80.8982277
  44.7882795  30.0759649  81.3031673  44.5219421  31.5399814  81.5801239
 104.0175105  91.1432607  15.9900582 103.2085706  90.6382949  15.9072697
 103.8467742  91.9503791  15.5046379  86.6697837  80.0003631  10.7381355
  87.4431372  79.5263464  10.4324257  86.3366652  79.4725044  11.4638340
 102.7652194  14.8602707  57.1670162 102.1255280  14.8698456  56.4550125
 102.3322035  14.3782646  57.8715717  17.9127076   1.7655975  25.3384506
  18.3353236   2.6218063  25.2711022  18.6381725   1.1456234  25.4130566
  51.2402871   3.9204103  28.2229626  51.8708375   4.5385582  27.8534424
  51.5130857   3.8161690  29.1345226  89.3494107   8.2653028  15.7788384
  88.6800458   7.8688032  16.3364899  89.7307958   7.5284178  15.3015721
  14.8193648  97.5949605   5.5245220  14.4187262  97.5599558   4.6558964
  14.9672892  98.5273440   5.6826603   3.1242278  92.7357419  16.0806477
   2.2770359  92.4607236  15.7301342   3.2931807  92.1295888  16.8019402
  27.3363546  21.6033918   0.9245026  26.9255594  22.2623951   1.4841473
  27.0740798  21.8461115   0.0365173  22.8493023   3.7330464  77.2902775
  22.9854345   2.9358771  77.8023529  23.6525607   4.2383185  77.4156046
  19.5593313  13.4807236  16.8210900  18.6410192  13.7493307  16.8490708
  19.6519378  12.8677971  17.5504505  25.9595063   0.4466135  13.2240593
  25.1680902   0.2355558  12.7287304  25.6369546   0.8440716  14.0328991
  84.1149093  80.5848463  53.9956200  84.8715688  80.2341754  54.4654381
  84.3942643  81.4533527  53.7059891  68.7962604  92.6749046   1.6747200
  68.2102133  91.9432957   1.4810097  68.2207967  93.4387858   1.7142117
 100.6789971 105.4769261  55.9100639 100.7632447 105.8577902  56.7841732
  99.7871638 105.1301892  55.8848107  90.3242732  99.2013724  31.6924297
  90.3010178  98.6857207  30.8863270  91.1656857  98.9822514  32.0927250
   1.6536763  87.2834380  39.2411530   1.3268855  87.4082191  40.1321423
   2.5831606  87.5060327  39.2935764  92.7607728  61.8746157  18.8325035
  92.5670005  62.7390708  18.4700024  93.6429120  61.9588871  19.1943752
  65.1481104  82.1095085  82.6421547  65.8807278  82.2459126  83.2429028
  64.5888615  82.8760052  82.7684879  92.9168368  75.0095351  13.6992466
  93.7747575  75.4334075  13.6762058  92.3120833  75.6748326  13.3707821
  91.6616584  99.9127896  18.6903011  90.7211829 100.0326331  18.5584652
  92.0687438 100.4294236  17.9948818  59.8978043  75.7257946   1.0701096
  59.4212342  75.7647426   1.8993199  59.4382358  76.3427241   0.5005276
  63.6515236  71.3463926  75.2440357  63.4973860  71.6211939  74.3401766
  64.3863392  70.7356644  75.1866913  73.7769700  93.4865887   9.7620499
  72.9463578  93.4231837  10.2335369  74.3972684  92.9976923  10.3028309
  39.5134261  18.6694128   9.2121708  39.6303848  18.6346800   8.2627785
  39.2480472  17.7819426   9.4534313 112.0180275   6.6650946  16.2667668
 112.0750310   6.6421205  15.3115475 111.2570097   6.1228973  16.4744007
  52.7764511  71.6779757  66.6203642  53.5780573  71.1853361  66.4443874
  52.5365305  71.4336586  67.5142193   3.9728597  24.8113806   2.8420555
   4.8189357  24.4571478   3.1157505   3.3286050  24.2887766   3.3196079
  67.0386219  40.0625038  90.7333183  67.0308447  40.4589653  89.8621178
  67.8452826  40.3843546  91.1357403   5.2602342   0.6923468  37.2045433
   4.7895006   0.8482057  38.0232918   6.1383870   1.0384828  37.3635208
  41.6581157  23.3335335  46.7691624  41.8540624  22.5408203  47.2686016
  40.7964423  23.1685669  46.3863575  82.8382111  40.8319712  79.2918730
  81.9011116  40.8597994  79.0987635  83.1587601  41.7005062  79.0487003
  85.5615998  73.8139827  38.4248745  85.5348397  73.3746882  37.5748551
  85.0760699  73.2327528  39.0102493  50.0702813   3.0277998  33.3223450
  50.6480172   3.7131102  32.9864704  50.6475499   2.2784645  33.4689438
 101.7664815  91.4248664  52.4910652 102.3118783  90.7034786  52.1774113
 102.1016503  92.1953971  52.0326149 100.4145003  79.2633994  22.1155750
  99.5516253  79.6429260  21.9493305 100.9800149  79.6529682  21.4487469
  91.8737365 101.1034281  28.5037052  92.7150679 100.6942112  28.7060272
  91.9351292 101.9788630  28.8859093   1.1727812  64.0108235  21.9781315
   1.8147137  63.5190947  21.4659226   0.8287098  63.3747096  22.6051914
  85.6196643  84.3907959  19.8782646  85.5767537  85.3079398  19.6076405
  85.5692197  84.4203789  20.8336746  48.7172654  10.6514055  16.4848149
  48.2685045   9.9199564  16.0607636  48.4710649  10.5811769  17.4071419
  11.1069253   1.1903221  18.4945690  11.2329152   0.2574474  18.3210671
  10.8448842   1.2296183  19.4143688 102.5433684  83.0180986  40.2096378
 103.1832076  82.7331598  39.5572197 101.7094708  82.6680381  39.8961079
  92.6580716  99.3519290   2.8065788  92.4851991 100.1560147   2.3168862
  91.8325854  99.1604121   3.2516968  25.7822231  20.5785925  32.0286762
  25.3888324  21.3892347  32.3516762  25.4039529  19.8928911  32.5790989
  75.5865383  30.3527427  77.0837498  75.0639153  29.7115111  76.6021729
  74.9482679  30.8374143  77.6071358  53.3958435  60.8585215  87.5729370
  52.8737926  60.4074812  86.9094181  53.4397173  60.2414703  88.3033848
  91.7617894 101.9314177   9.1110909  92.2130824 101.0907109   9.1870987
  92.4659205 102.5748570   9.0309822  75.8471895  34.6025999  20.8815109
  76.6373611  34.4891543  20.3533184  75.2767707  35.1522465  20.3441631
  42.9962686  35.8954985  17.5322735  43.1732896  36.1201937  16.6188156
  43.7974408  35.4666693  17.8330338  36.5377238  85.9929879  38.6282932
  36.4090350  85.0615938  38.4489071  35.6641295  86.3178499  38.8462937
 102.9958917  67.0949645  13.4307873 102.4500085  66.3655562  13.7243950
 103.8261128  66.9733567  13.8914215  26.3034013  19.0680773  11.1392510
  26.9643548  19.3343288  11.7783749  26.0296634  19.8854715  10.7231152
 101.5222121  85.2294238  38.9961445 101.7404366  84.5411308  39.6245300
 100.6399680  85.5074723  39.2422497  23.3631471   8.7146789  45.4966271
  23.3595422   7.9111654  44.9764549  23.6842016   9.3873484  44.8960697
  87.7762414 106.7151244   2.2957146  88.6351968 107.0730336   2.0713627
  87.5522281 106.1491330   1.5569985 100.0891353  69.1100736  29.1540920
 100.3456117  69.6019895  28.3740532  99.7799445  68.2695324  28.8162720
  96.6988469  90.2354748   9.0312397  97.2257663  89.9066050   9.7595513
  97.3390866  90.4729087   8.3604633  92.2632171  47.9463072  22.4681294
  93.1852961  47.9974211  22.7198994  91.9037486  48.8025452  22.7002251
   0.6847981   5.2788526  33.9416420   0.5168131   5.4435093  34.8694908
   1.6292074   5.4004318  33.8439572  71.9131804  79.8874004  34.1628372
  71.2368680  80.5123694  33.9015972  72.6450158  80.0656207  33.5721695
 102.9803325  31.4202578  27.1264660 103.9335300  31.3348562  27.1452343
 102.7317955  31.5323145  28.0440247  71.7621494  59.2509915  31.1799729
  71.9909454  59.7716351  31.9499123  72.0737863  58.3696113  31.3855946
  76.4887310  69.9133928  54.5849526  77.1018697  70.3194542  55.1976597
  76.1953522  70.6336958  54.0269959  28.9763665  34.9559665  89.0765953
  28.8787603  34.8413682  90.0218868  29.6045804  34.2819476  88.8172245
 103.2054664  93.3896811  14.7723877 102.2885800  93.1796582  14.9497044
 103.3712436  94.1849549  15.2786362  18.1064799  92.5060875  21.4242851
  17.7940466  92.0968540  22.2312176  18.1665041  93.4376795  21.6358578
  76.8713522  28.7497807  72.9633570  76.8134737  27.8893232  73.3786869
  76.2658978  29.2979097  73.4625673   9.7558501  60.2907879  18.5854733
   9.5444777  60.6731505  17.7337944   9.8706438  61.0443218  19.1644776
 104.1057826  96.0709603   9.1662800 103.8520242  96.9652064   8.9378845
 103.2874156  95.6493123   9.4284165  27.4719194  27.7090628  39.6576988
  28.3607295  27.9956610  39.4476616  27.5568870  27.2632486  40.5004704
 101.5985324  11.4756805   5.3250801 102.5339200  11.3897640   5.1409542
 101.2082245  10.6827909   4.9573528 110.5933190  92.0315464  60.4938042
 110.4086781  92.0002849  59.5551026 109.9326611  91.4613063  60.8869755
  95.5738450  77.4362309  13.6829865  95.2577687  76.8281443  14.3512356
  96.0912562  78.0783684  14.1689598  44.8030046  18.4207708  16.4848053
  44.5329240  17.6261932  16.0244381  43.9815858  18.8389522  16.7429268
  56.2693119  35.6784987  59.8072767  56.4504528  34.7389436  59.7817421
  56.1430645  35.9230852  58.8905048  50.4474786   8.9202721  34.1920578
  49.8287824   9.0505201  33.4733879  50.0606683   9.3921501  34.9295818
  30.6397200  41.5440798  85.0013161  30.9955406  42.3294258  84.5855522
  30.5343699  40.9198141  84.2833805 100.3633525   9.3271620   4.1874420
  99.5762541   8.8584263   3.9099610 100.9466292   8.6427099   4.5153725
  44.6760273  40.5922985  79.3069077  45.3663826  40.4259396  78.6650562
  45.1286602  40.5946493  80.1503181  84.3290424  60.9002113  90.8992004
  84.1342640  60.0649929  90.4741001  84.1628456  61.5574121  90.2234077
 110.6964208  89.3780286  31.9059384 110.3575803  88.4907897  31.7866623
 110.2158833  89.7185047  32.6605141   0.9232071  39.8363096   1.1108601
   0.6759694  40.7492906   0.9640133   1.2920764  39.8271448   1.9940865
  60.6090596  29.4245703  28.5304463  60.2069524  28.6233026  28.1950104
  61.5271524  29.1919214  28.6690914  31.0636190  14.0239365  10.3906738
  30.8026365  13.1099445  10.5035126  30.6732753  14.2831928   9.5560181
  19.8010447  79.9524076  13.7942993  20.0299170  80.1082594  12.8780186
  20.1466181  80.7137425  14.2603218 109.7003508 105.9601672  37.0514023
 109.2481423 106.0188897  36.2098038 109.0092326 106.0768206  37.7033055
  96.6572381 103.3043654  40.9498989  96.6069556 103.8131316  40.1406681
  96.2335444 103.8567669  41.6068375  74.7891092  79.5014000  88.1296730
  74.7568464  78.7879705  87.4923325  73.8742352  79.6512651  88.3679581
  48.0128625  14.7446138  24.7975266  48.7869218  14.6763498  25.3564560
  47.2818807  14.5163042  25.3717911 108.9342690 102.6226742  35.2417099
 109.1774035 101.9236262  34.6347057 109.7668982 103.0234845  35.4913246
  58.6939716  27.4587512  82.8769588  58.3882618  27.2766757  81.9883537
  57.8923798  27.5482893  83.3923912  85.4068851  66.9282389  78.4127045
  85.0198364  67.3099184  79.2005777  84.9090958  66.1237621  78.2668972
  42.4101499  12.1280939  26.2595665  41.5002111  11.8437607  26.1736023
  42.3502973  13.0369884  26.5537750  20.6670049   9.8289806   8.7937557
  20.0853446   9.0868647   8.9585793  20.7340911  10.2730638   9.6390545
  26.5749505   3.1167919  10.8941567  27.0188001   3.9599640  10.8031189
  25.7843879   3.3152277  11.3960182  19.4299320  41.6226465   6.5406429
  18.4822276  41.7550356   6.5168774  19.7806886  42.4575121   6.8508064
  13.4839251  73.9110858  23.0447685  14.3545153  74.0095336  22.6592648
  13.4764769  74.5247324  23.7793553   6.7895892  93.1766899  33.5254872
   6.7889597  93.0427105  32.5777065   5.9257033  93.5420926  33.7162983
  75.7374287  66.3181973  87.3167038  76.3359547  65.6839609  87.7113533
  75.5437326  66.9357204  88.0219555  59.3219471  84.5634460  91.1621094
  60.2434254  84.7028160  91.3804913  59.3356609  84.2383289  90.2619171
  38.2941106  32.4453146  14.6369564  38.5792640  32.1307642  15.4948437
  38.5757068  31.7640860  14.0263378  69.0490678  18.0600483   5.0927841
  69.7409395  17.5702269   5.5373394  69.5155195  18.6457092   4.4964134
  31.1460211  94.6965153  13.2361233  31.5787890  94.1632922  12.5693333
  31.7243578  94.6443207  13.9970600  26.9737008  28.0515940  26.9936001
  27.8110364  28.5108740  27.0581448  27.2045043  27.1241552  27.0467388
  20.7970622  18.1997234   8.4503376  20.0051406  18.4348709   8.9338600
  21.4591935  18.8176567   8.7601292  92.5971747  92.6251156  36.4402210
  92.1909285  93.4409983  36.7326843  93.3491469  92.9055364  35.9185612
  82.4836731  51.4295053  68.4900141  81.5450287  51.4507389  68.6763668
  82.8401089  52.1770859  68.9699221  11.3416007  19.4951136   4.4167721
  12.2368911  19.4003136   4.0916550  10.8637384  19.8941261   3.6896813
  35.1337817  -0.0348013  60.2406513  34.4665244   0.4217798  60.7530224
  35.8744529   0.5711014  60.2178490  56.3715413   6.2692100  34.0422070
  55.6539682   6.8379433  33.7631714  56.4068845   5.5834848  33.3753121
  10.1769927  20.8471090   2.3567593  10.0587371  21.7969353   2.3659527
   9.4711211  20.5232698   1.7972004  45.3822282  14.6173555   2.3496830
  45.2430013  13.9778168   1.6512310  44.5929769  14.5595581   2.8881752
  94.9667072  77.1990013  72.7186823  94.4686604  77.9315710  72.3560190
  94.3089390  76.6504240  73.1460381   8.0545286  17.2720701  44.8295128
   8.0223802  18.1298859  45.2530110   8.8407281  17.3033840  44.2844116
 102.8454543 105.4220088  37.1016323 103.3514167 105.4822428  36.2913239
 102.2646905 106.1825402  37.0784676  11.3976767 102.4617941  39.2623055
  11.6607573 101.6042168  38.9282524  10.5238154 102.3193629  39.6260559
  44.1956285  32.0865042   0.3014290  43.4264139  31.5704328   0.0601589
  44.8646978  31.4351160   0.5118382  91.4439393  93.0222399  46.5893566
  91.6393519  92.1560318  46.9467556  92.2263623  93.2576997  46.0907566
  88.8075353 103.2514365  17.4941933  89.1618110 103.4201558  18.3672630
  89.5372582 103.4299119  16.9009983  15.8819202   6.4656336  28.8356888
  16.7153409   6.4806492  28.3651459  15.3410772   7.1146471  28.3856785
  52.8906012  52.0152855  90.2817059  52.0044947  52.2523069  90.5553150
  52.7661037  51.5099478  89.4783592  85.3199437  13.9734251  18.5308468
  85.5132154  14.2245848  19.4340622  84.4901899  13.4994442  18.5863697
  36.7090467  11.7889864  15.8199989  36.2188676  12.2557909  16.4967930
  37.2050956  12.4723274  15.3692066  34.5924428  20.4370243   0.7839024
  35.5217651  20.2454216   0.9099114  34.2649082  20.6236107   1.6637528
 106.6037417  64.3590887  26.9945252 107.4612094  64.6774371  27.2767174
 106.1504889  65.1404507  26.6778767   9.2797377  93.6549552  20.9928333
   9.6591284  93.8198931  20.1296436   9.9484827  93.9531834  21.6093361
  10.7036594   3.4675247   6.3960087  11.3313392   3.0314714   6.9722950
  10.6390432   4.3576366   6.7420780  68.6853863  85.4549797  28.4175789
  68.3046246  84.5997150  28.6170113  68.1303025  86.0791595  28.8850319
  98.4626485 106.4631016  17.5328648  98.7505341 105.5519373  17.4768936
  97.8860188 106.5789206  16.7776787  29.2324831  87.5936921  19.6304810
  29.1831877  88.5318048  19.4467842  28.3309176  87.3408468  19.8292076
 108.2420970  97.6847727  46.7714512 108.3549214  97.1494467  45.9859955
 108.9152766  98.3613808  46.6988861 101.6503669  70.7195921   7.7115070
 101.8366958  70.3143592   6.8645775 102.4889804  70.7068415   8.1728089
  22.9458812  36.2726385  13.9504063  23.1362680  35.7123835  14.7028076
  22.6690486  35.6657869  13.2638752   4.3059257   3.2032329  19.7467053
   5.1601842   3.1823666  19.3153965   4.3690255   2.5412924  20.4352486
  74.4916681  25.7367880  18.1732952  73.9680627  26.0384733  18.9156258
  75.2403787  26.3327152  18.1503784  44.8893216  22.4204142   8.4872734
  43.9835885  22.4660141   8.7935555  44.8161748  22.2934229   7.5413620
  69.2730236  71.4365005  91.8570423  69.0014744  70.8983660  91.1134624
  69.1211033  72.3367119  91.5693474  94.8450756  17.2826290  62.5276709
  95.5971050  17.8747821  62.5342369  95.1899624  16.4613485  62.1772671
  99.4573785  93.3514864  49.1251862  99.4308186  92.5675232  49.6737587
  99.9081040  93.0712516  48.3286011  18.6646941  93.9462025  14.7776615
  18.9021590  94.2164500  15.6646835  17.7105906  94.0188439  14.7524941
  36.3232473   3.6277038   2.6394474  36.1936239   3.8669998   1.7217457
  36.8540862   2.8318579   2.6067650  40.4332546  35.5731852  36.9127571
  39.8994497  34.8487837  36.5863812  40.4574064  36.1982901  36.1882698
  84.8337129   5.1440937  59.1737473  85.7576135   5.1987583  59.4179642
  84.4356015   5.9205276  59.5672905  50.9247926  25.8693392  29.5620167
  50.2511648  25.2617533  29.8674595  51.7178491  25.3368074  29.5011246
 103.5349608 102.2439702   5.8636868 104.4718982 102.1510441   5.6912148
 103.4803534 102.4157317   6.8037617  58.4577131  51.1479282  92.4561501
  58.8117933  50.9610939  91.5866947  58.1012917  50.3111553  92.7544975
  61.5404892  70.0587606  77.0567751  62.4805880  70.0652456  76.8767738
  61.1331987  70.2405262  76.2098360  31.0896304 100.5697472   6.9077885
  31.7203715 101.1148913   7.3781216  31.6283610  99.9475224   6.4190781
 105.4672623  45.6504011  64.4288254 105.1574802  45.2641678  63.6096287
 105.5248928  44.9119091  65.0350761  79.2245245  38.4506130  90.9370422
  79.3539858  37.8275251  90.2220440  78.7910938  37.9420328  91.6224098
  22.5132564  31.6643602   1.7610466  22.8730348  32.0433695   0.9590828
  21.7224458  32.1753103   1.9336235  98.3215810 105.9459097  24.1524899
  97.8288461 106.2864430  24.8991406  98.3854390 106.6867239  23.5497105
  50.0722792  68.4383352  24.3377030  49.7286990  67.8391416  23.6750137
  49.4267371  69.1437943  24.3804848  43.6481622  51.5144522  25.1068222
  42.7248529  51.3496763  25.2980721  44.0975908  51.3495237  25.9357083
  84.2010403  79.5471811  90.2330017  85.0743389  79.4056416  90.5984306
  83.6906338  79.8998022  90.9619617  46.2790826  32.7155096  51.8243992
  46.8116620  32.6818163  51.0297596  46.9132951  32.6699240  52.5398934
  64.9156284  37.8200746  81.5753460  64.6759367  36.9231844  81.8085098
  64.8636770  38.3038712  82.3996449  63.9040279  88.9508533  85.4343510
  64.0928698  89.8300934  85.7622242  62.9580021  88.8529778  85.5424595
 103.5173846 102.8335793  61.7705452 103.2822276 101.9298584  61.5602314
 102.8611375 103.3633645  61.3178837   6.8874266  98.8959582  17.4966347
   6.9176676  99.6751578  18.0517590   7.7840712  98.5609992  17.5049698
   9.3918756  26.4480049   1.4254772   8.9167121  26.6574461   2.2295773
  10.1753810  26.9967539   1.4604199  70.4039478  92.5235844  72.7760220
  70.1835108  92.5422478  73.7073088  71.1708593  91.9532776  72.7228069
 108.3370257  96.7658408  14.1378224 108.1494475  97.6694901  13.8839256
 107.4915315  96.3206942  14.0810978  71.7623475   0.0554449   9.7437966
  72.0255807   0.8312256  10.2388775  70.8754018  -0.1343124  10.0496590
  43.3567479  26.7137606  18.5574257  43.4393361  25.7934601  18.8073456
  43.2588151  27.1796019  19.3878662  37.5695232  29.2750723  26.7495835
  36.7538837  28.9509375  26.3676083  37.2975448  29.7224600  27.5508988
  81.9337273  93.5892391  79.5421600  82.7993202  93.3270454  79.2287207
  82.0338154  93.6591244  80.4915428 109.7657801  46.7874796  22.3654568
 110.3684689  46.0530264  22.4819576 109.7150304  46.9075758  21.4171803
  85.4235554  32.2491050  74.1847801  86.1768055  32.8370810  74.2407513
  85.6939983  31.4669490  74.6657419 102.4190188 106.7445977  23.5633480
 103.1205369 107.3929198  23.6247742 102.5550462 106.1722357  24.3184197
  79.4535781  96.3523371  29.8809731  80.1938868  96.8094142  30.2800476
  78.8337708  97.0475085  29.6600639  26.1697439  24.6579773  37.2461521
  25.6321433  24.1283447  36.6573345  26.3489583  25.4580624  36.7522156
 111.7918254  96.9896586  15.9946453 112.7167464  96.7465241  15.9541714
 111.7989827  97.9306490  16.1698925  76.7923975  80.7467365  86.4685345
  76.1605024  80.0924206  86.1705112  76.3015079  81.2906265  87.0845222
 109.9372674 102.4196799   5.9755051 110.1205731 102.1659691   6.8800842
 109.5508672 101.6377957   5.5810654  74.2724371  56.4053488  83.1572533
  73.6229086  55.7870245  82.8225613  74.0048647  56.5675592  84.0618610
  40.6411078  92.9482682  21.6598999  40.8659174  92.2182758  21.0830128
  40.0764182  93.5088809  21.1278641  68.9670610  34.5116520  78.9887524
  68.2438326  34.4825983  78.3623886  68.8060951  35.3021502  79.5039558
  54.3759108  20.5108023  79.2726278  53.4439611  20.7280827  79.2946196
  54.8112535  21.3420439  79.0835524  25.6840661  10.9867317  20.7561791
  25.9453157  11.9044239  20.6799042  26.0432962  10.5695660  19.9731362
  18.0574325   7.0397360  51.9852650  18.6834863   6.5725166  52.5384342
  18.5756973   7.3416931  51.2393105  65.9117749  16.5365774  50.4731095
  66.4957956  15.8062298  50.2688038  66.4997152  17.2580702  50.6967270
  38.1132054  32.5951266  80.2815914  38.3445024  33.4958100  80.0546360
  37.1565604  32.5791025  80.2532101  16.7430356  44.6278078  44.6385681
  17.0277980  43.8141233  45.0545704  15.8735946  44.4279272  44.2916596
  85.7178307  91.2833214  84.3410397  86.4320183  91.8889332  84.1425228
  84.9755383  91.6144085  83.8354588  37.6187423  15.1655609  27.5739300
  37.7836135  15.9340507  28.1202519  37.7773860  14.4208366  28.1539738
  18.4647373   2.7578527  36.9909870  18.3624652   3.4565718  36.3447964
  18.7220958   1.9922954  36.4772522  89.5726109  58.6012506  83.2761860
  88.9978123  58.1421661  83.8886166  89.0480423  58.6969805  82.4812603
  67.0688725  69.1678519  13.0836498  67.5764442  68.5399361  13.5977757
  67.7268792  69.6798046  12.6133644  96.3747597  78.8257408  83.6790848
  97.1794128  78.8517284  83.1613159  96.1600971  77.8950167  83.7415600
  26.1300281  42.4206526  37.7928841  26.0493472  41.4724523  37.8960049
  26.7462877  42.5312597  37.0688545   1.6974547  75.3900774  23.6759579
   2.0866635  76.2071497  23.3642780   1.7607644  74.7945101  22.9292786
 106.1998416  98.6065562  21.0256874 105.8240701  98.4858305  20.1536476
 106.8090058  99.3379767  20.9248364  64.4005731  45.3813345  38.7997734
  64.9871972  45.9776480  39.2650902  64.4389394  45.6705267  37.8881085
  21.5052083  29.2396337  30.0818169  21.5200094  29.4655878  31.0118496
  21.2196878  30.0420172  29.6449101  49.2927984  24.9315388  16.6072285
  49.3402723  24.1223509  16.0981190  49.8549035  25.5453140  16.1344158
  79.2678642  33.2965541  77.7165937  78.5416079  33.6626196  77.2118378
  79.9940634  33.2532334  77.0945072  20.4467061  22.9440004  14.6367561
  20.1511768  22.1514923  14.1886246  19.7102168  23.1918938  15.1956474
   8.4281305  22.1443254  33.3992970   7.7744106  22.8302605  33.5348427
   7.9571632  21.4532787  32.9335892  51.9562578  43.3620071  77.6400042
  51.7014647  44.0520573  77.0275164  52.1733189  43.8270760  78.4479809
  78.5601855 106.1666281  19.6293747  78.7234307 105.2930291  19.9849236
  77.6292611 106.3206036  19.7903073 101.6764285  25.6609137  19.5444405
 101.3899185  26.1389715  20.3226483 101.1984827  26.0696203  18.8228047
  70.8842254  96.1587079  12.4540627  71.4816070  96.3387043  11.7281353
  71.2720133  95.4073174  12.9026901  18.2181409  10.9324343   7.6377594
  18.1584981  10.2408821   6.9786465  19.1249183  10.8956654   7.9421150
  77.8464890  72.4118137  80.6159210  78.3758354  73.2091904  80.6305408
  77.6326227  72.2832155  79.6918249  59.4219640  19.2280085   7.2951996
  60.0506357  19.8268921   6.8922627  58.8449243  18.9678366   6.5771591
  16.8015340   9.0555031  15.1023209  16.8478158   8.1365568  15.3661835
  16.7281440   9.5377619  15.9258949  61.7466977   4.6533949  12.3229515
  61.0816339   5.2312929  11.9488442  62.4335721   5.2454836  12.6293099
 106.7716981  84.9435742  15.4226410 106.5455390  85.7029421  14.8855602
 106.3847781  84.1997845  14.9607956  19.6813730  12.5783331   1.4971554
  19.6412566  12.3673183   0.5643665  19.0740588  13.3105261   1.6034233
   7.2648528  81.9337232  19.6429169   6.7822840  81.2764318  19.1415989
   6.6585448  82.2007186  20.3338158  42.8217653  27.4219782  21.1955750
  42.5494626  27.1537668  22.0731556  42.0526841  27.8583414  20.8290589
 106.4728785 101.7267878  24.3715202 105.6524993 101.7394192  23.8785183
 106.9651605 100.9954627  23.9986336 111.7688061   7.8158314  21.8273937
 112.2935178   8.0730421  21.0692703 112.4118044   7.6285202  22.5112831
  38.2770828  27.7297384  13.9330685  38.8889459  27.3645288  14.5721829
  38.0770067  26.9988615  13.3482468  92.9486800  88.2172306  40.3676617
  93.6387826  88.8608749  40.2073013  93.0141402  88.0238516  41.3028347
 101.2799693  55.3984099  23.6603462 101.9931937  55.6825396  23.0886757
 101.7186595  55.0659479  24.4434559 112.4718358  11.5149671  17.8896725
 111.6824724  11.8730146  18.2957947 112.4061372  10.5704195  18.0301964
  26.4892485 104.6808894  12.1328365  26.3808443 103.7304671  12.1671021
  26.9970705 104.8924239  12.9161751  96.8966414  23.0975086  16.4398586
  96.8366338  22.3300249  17.0087158  96.9777347  22.7357799  15.5573570
  91.3974954 106.5599616   4.7999012  91.4581824 106.4513237   5.7489788
  92.1678973 106.1068804   4.4572174  19.8320201   6.0690672   4.2751515
  19.8736432   6.7083532   3.5639488  20.7363704   5.9889252   4.5783913
  87.4571800  80.9022522  81.7821693  86.9771194  81.7257690  81.6950130
  87.0045280  80.2977371  81.1940384  84.4842816  98.4437163  15.5280125
  84.9372578  97.7963383  14.9876988  83.6036969  98.4922440  15.1559364
  27.0273402 100.3317912   5.3191578  26.6704848 100.4162819   4.4349873
  27.8705409  99.8956950   5.1964485  24.5271781  22.8628332  14.4474327
  23.9909604  22.6229364  13.6916935  24.5666221  23.8188059  14.4193470
  19.7469761  76.6987610  90.9591770  20.1238491  76.8804693  90.0982571
  20.4970790  76.4586020  91.5031528  26.6120294  29.5621664   5.9194576
  25.8622745  28.9862234   6.0690796  26.5549806  29.7936708   4.9924290
   2.8265049  83.2654841   8.9190399   3.6725905  83.6778171   9.0932667
   2.2243025  83.9986641   8.7924111  31.1709216  86.2407239  21.6785633
  31.7099192  86.9432337  21.3149845  30.5766394  86.0021455  20.9671318
  43.7341455  22.8021414  -0.1992023  43.1189016  22.3190910   0.3524983
  44.5980218  22.5251371   0.1060879  89.6779060  42.3390245  83.3345604
  90.5004883  42.1775579  83.7966537  89.8125458  41.9595671  82.4661636
  35.0033477  14.9559814  27.2189438  35.9597686  14.9182636  27.2270882
  34.7874406  15.6849510  27.8005135  49.4623712   8.7413723  38.3976566
  49.0835336   7.8654653  38.3234799  49.4301370   9.0924150  37.5077355
  51.6144517  15.0080330  50.2074444  51.9145444  14.3897612  49.5411789
  51.0005048  15.5787975  49.7453606  63.6655477  29.8714621  19.9905026
  62.8961805  29.5194609  19.5428383  63.9555410  30.5951673  19.4351780
  66.8483067  86.7110729  92.1554756  66.8771124  86.1436462  91.3851357
  67.2387695  86.1862469  92.8542709 103.0551125  14.9917108  63.9810478
 102.5656249  14.1844351  64.1389954 103.8636519  14.8834211  64.4818222
  53.6274195  79.4578838  65.4804897  53.9185715  79.3574047  66.3867855
  53.0695724  80.2356243  65.4929686  50.8475068   7.4830896  30.5884850
  50.4182294   6.9821388  29.8949444  50.9287122   6.8652422  31.3150608
  77.4044920  64.1035671  22.4173748  77.8329039  63.4032847  21.9251358
  77.4381257  63.8112707  23.3282292 112.6422835  86.6893060  26.8593895
 113.0972815  87.1207793  26.1361801 111.9875289  86.1355479  26.4340889
  60.3369188  26.7375517  85.7142353  59.6783113  26.8690872  85.0322056
  59.8293304  26.5667939  86.5076065 112.9823495  48.1119831  22.7409947
 113.5143662  47.3169394  22.7079308 113.1401063  48.5408921  21.8999397
 109.1386224  69.1659267  54.8575222 110.0421334  69.4813402  54.8778259
 109.0138532  68.8541741  53.9611542  52.2969106  13.0257351  58.9215290
  52.2557882  12.1150000  58.6298191  52.9015497  13.4460480  58.3099854
 106.4191771 102.0187027  32.5752747 105.8802462 102.7539284  32.2833264
 107.3067380 102.2481329  32.2999012  63.2311109   0.0675995   0.0515473
  63.5166982   0.9439499  -0.2066601  63.9216283  -0.2471417   0.6349575
  76.3380960   5.2475054  14.6985829  75.7647851   5.3615791  13.9406120
  76.0442975   4.4298155  15.1002133  50.3698972   9.7853119  44.5850098
  50.6072763  10.4925281  43.9852345  49.6498636   9.3314297  44.1470825
  10.3342440  90.5066235  22.7475845   9.7057440  90.7849033  23.4137451
  11.1894419  90.7180936  23.1219494 108.2274247 104.4496806  21.1129677
 108.0249310 103.5970337  21.4979756 109.0539027 104.3131430  20.6498062
  84.3436909   4.8904386  91.7381096  84.8344612   5.7043892  91.6247368
  84.9883938   4.1990924  91.5877056 102.3762321  50.5329561  89.3898296
 102.8390121  51.3456964  89.5935917 102.1224499  50.6256056  88.4715462
   1.0006764  91.1429651   5.0669491   0.1534178  91.0515792   4.6310246
   1.1389544  90.3009279   5.5006420  38.8548520   6.3115913  16.6239655
  38.4684566   5.5895645  16.1283791  38.1351045   6.9307691  16.7456543
   4.8910907   5.7475836   1.4598286   5.2277759   4.8713619   1.2724507
   3.9713481   5.7120068   1.1970722   8.3642057  52.2269422  48.8838875
   8.7043861  51.3547975  48.6842072   8.5098699  52.3313410  49.8241627
  34.2468360  17.6183016  39.5542633  34.6101383  18.2747538  38.9598667
  34.8256686  17.6387627  40.3163445   4.9162199  93.8317139  13.9895928
   5.6595519  93.8065131  14.5921337   4.4390681  93.0204184  14.1638291
  22.8925327   5.1909859  27.9343521  23.3554223   5.9622461  27.6070511
  22.3522666   5.5223782  28.6516487  80.6905746  18.7594521  79.8735046
  81.4244366  18.3009207  79.4643259  80.4209995  19.4081891  79.2233467
  22.8988078   6.1061890  22.0315373  23.3931878   6.4548237  21.2897312
  22.0965961   6.6280157  22.0512020  74.5416451  69.7973585  88.0297947
  74.5830154  70.5050707  87.3866272  73.6305285  69.5049095  88.0058479
  94.2085075  82.7766323  90.8143425  94.2424107  83.4309101  90.1164913
  94.4281864  83.2626247  91.6091919  74.9357939  54.4290876  88.8163567
  75.1140165  53.8541842  88.0720806  73.9810228  54.4883776  88.8499641
  69.1200233  82.0727022  15.3382408  69.5270539  82.5057538  16.0885822
  69.0464831  81.1554892  15.6019413  89.0784550  84.7667694  91.9743156
  89.1230392  85.0179482  92.8968906  89.2492199  85.5784607  91.4965725
   3.4240296  98.9839394  10.0846588   4.3184664  98.7906153   9.8038876
   3.5269453  99.6265061  10.7866203  94.7559503   7.9285747   8.8809693
  94.8980954   7.0095236   9.1076386  95.1470331   8.0243427   8.0125725
  65.4084543   5.0585157  15.7850849  64.8541024   4.9478275  16.5575325
  65.2612546   4.2658646  15.2690708  90.2268935  67.9197152  13.0448258
  89.3157626  68.1872196  13.1653225  90.1723910  67.0129378  12.7431309
  12.2030643  41.0410292  13.2739079  12.5766376  40.8295423  14.1294491
  12.9616216  41.2287313  12.7211106  41.8974402  91.4075716  59.9145615
  41.8061831  92.2170694  60.4171765  42.1128561  91.6987641  59.0285408
  30.9143737  13.2389337  28.4237110  30.4391959  12.7532513  29.0979111
  31.3818219  13.9216740  28.9049637  55.2147436  57.1426201  90.3893948
  55.1625776  56.1938715  90.2737141  56.1529350  57.3273754  90.4329014
  41.1618474   4.5963175  33.4298432  40.4786685   3.9728815  33.1832039
  41.5703252   4.2099745  34.2045128  92.8258325   6.0275394   6.1236775
  92.0406188   6.2333424   6.6309368  92.5230087   5.4187281   5.4499638
   7.8143790  89.8423798   8.1306946   8.6591341  89.5219095   7.8145802
   7.7427771  90.7257373   7.7690518  38.0530265  43.0055983  46.0114491
  38.5774234  43.4802515  45.3665077  38.2160285  42.0820600  45.8197701
  42.9413465  15.6467325  29.9378311  43.8160184  15.2595646  29.9020111
  43.0787900  16.5692837  29.7227871  84.4121886  95.0190289   6.1589062
  84.3431140  94.8302825   5.2230465  85.3490258  94.9608166   6.3464749
  46.7898134  26.7802603   6.5894043  47.4189809  26.1454136   6.9319641
  46.4173749  27.1928007   7.3687279  37.7614549  17.7873594  25.6897747
  37.9859546  17.0411188  26.2456143  38.5810664  18.0137331  25.2502072
  67.6649714  41.5558290  85.0194740  66.8105793  41.9341755  84.8118591
  67.9784489  42.0671463  85.7654762  86.1291314  81.3519247  34.2033779
  86.4837600  81.5348108  35.0734436  86.8401385  80.9050710  33.7440025
  28.6437753  42.8126890  24.4076740  28.1927923  43.6545736  24.4715225
  29.3852523  42.8920538  25.0077927  78.2822660   7.1204121  16.3328755
  79.0662721   6.8407566  15.8602726  77.5634340   6.6640694  15.8955204
  19.3820194  44.9750311  23.0245888  20.0785020  45.2476580  22.4272453
  19.6067384  44.0747244  23.2595074  15.0325396  84.9320753   3.4678375
  15.8936026  84.5295365   3.3548653  15.1231768  85.4758747   4.2503369
  31.1748985   3.0273563  27.7101719  31.4142993   3.4351522  28.5424149
  30.8454850   3.7497360  27.1754944  29.0279200 103.8859303  17.7870762
  28.4235098 104.4842370  18.2263291  29.2898848 104.3507988  16.9924080
  34.2125514   5.9636671  11.4114391  33.7354806   6.2745697  12.1808445
  34.6782878   6.7357809  11.0902607  70.2961973  58.1291944  11.9029724
  69.4161943  58.4687120  12.0659268  70.8469060  58.5711557  12.5492108
  16.3101772  21.6496689  15.6189167  15.7080701  21.5097029  16.3497364
  15.8696798  21.2544329  14.8666012  22.9106334  15.9441072   9.9600899
  22.2275928  16.1369974  10.6023419  22.6706651  15.0882227   9.6049702
  56.1483339  21.9424040   0.5287182  55.9515432  21.6401894  -0.3579414
  56.6000512  22.7768404   0.4026138  46.7425203  63.5912228  91.8029499
  46.2329102  62.8306961  91.5234184  46.1528826  64.3344688  91.6759109
  33.8200906  27.1837694   7.6144612  33.1741145  26.4972908   7.7808678
  33.5072139  27.6200563   6.8219959  57.6336575  67.5876236  84.0023422
  57.0459080  68.3384895  83.9187908  58.2438183  67.8371334  84.6963692
  96.6856861  55.3784275  85.3215122  96.1604309  55.8353186  84.6645546
  96.5950012  54.4519567  85.0986576  44.8296884  40.4308493  32.1567452
  45.0135568  40.4492742  33.0959332  45.6208566  40.7851011  31.7508042
   1.5953400  61.3697393  11.5304005   2.1102669  60.5628760  11.5231335
   1.8261006  61.8085183  10.7115853  56.5432504   8.9225084  25.0206673
  57.3626188   8.9967806  25.5099117  56.4220479   9.7852117  24.6240914
  33.3602765   4.6718008  20.3301441  34.1493085   4.2675335  19.9692833
  32.7591184   3.9402754  20.4705345  15.3298857  94.3231471   9.4103157
  15.8804991  94.6910698   8.7191593  15.5398467  93.3892615   9.4121563
   9.8139718  23.0513222  42.0765698   9.9919370  23.0540878  41.1360562
   8.8806537  23.2527143  42.1443188  98.7214470  94.5524597  86.0265350
  98.7422180  94.2950821  85.1048183  97.8819942  95.0003242  86.1312866
  27.9676536  20.3992874  18.3895504  28.0004361  20.7954866  19.2602837
  27.4390128  21.0053093  17.8704083  26.2154058   4.2917187   7.0513928
  27.0422414   4.7273857   6.8445885  26.4753440   3.4672291   7.4623501
  98.0162811  68.3697701  91.9726181  97.4558640  69.0819740  92.2807217
  97.4455643  67.6013422  91.9666958  21.7150691  15.6968147   3.1479847
  21.2555984  15.7700855   3.9845001  22.2050193  16.5155346   3.0713188
  73.0826619  16.5051205  26.7768109  73.5529760  17.3186809  26.5947163
  73.3541158  16.2646753  27.6626599  68.6554960  16.4590532   7.8486168
  68.9677194  16.2747795   8.7345040  68.3535627  17.3666555   7.8850281
  84.5424844  81.4915736  29.4052326  85.3086329  80.9426410  29.2381298
  84.6898366  81.8482311  30.2811920  38.4216312  22.7895958  19.8526203
  37.5929788  22.3228104  19.9607098  38.2143787  23.5111458  19.2587769
  55.2370504  51.4700014   9.9209606  55.0293592  50.8687860  10.6362450
  56.0380224  51.1154539   9.5349991  92.2339439  95.8853340  77.8195095
  92.4241352  95.0873089  77.3263502  92.2145081  96.5768337  77.1579313
  65.0935224  45.3803236   7.0947754  64.9306062  44.4959719   6.7667305
  64.4243005  45.5138571   7.7660000  36.1062673  25.5904180  37.3546421
  36.2389091  24.8547012  37.9524338  36.9497207  25.6966431  36.9147026
  97.9192401 105.3111727   9.5309269  97.1142102 105.8246644   9.4639504
  98.3410312 105.4146988   8.6779225   9.2496254  29.0552187  61.6799831
   8.6446334  29.2373872  60.9609318   9.3351509  29.8910284  62.1386147
   6.9387343 100.6416972   2.6750290   7.2122958  99.9625618   2.0584500
   7.1978190 100.3049119   3.5327542  45.0820306  25.6009657  16.6946900
  44.3856195  26.1301929  17.0834839  45.0523904  25.8139688  15.7619679
  56.6597033  78.2837057  84.3733025  56.6416550  78.3962965  85.3236866
  57.2782803  77.5677013  84.2286491  47.0969823  24.5008308  17.8657734
  46.4114717  24.9935800  17.4146664  47.9055455  24.7512514  17.4188339
  55.2246717  42.3784239  32.0408356  55.1259378  41.4267332  32.0133507
  54.3679002  42.7157576  31.7793190  49.1765931  23.8198215  21.8024361
  49.7095922  24.3452866  21.2057602  48.3390668  23.7193233  21.3500225
 110.9802772  14.6006138  17.9058087 110.1898791  15.1080973  17.7215206
 111.2780239  14.9216873  18.7569821  57.4941492  71.3590527  75.2783966
  57.5989866  72.1490431  74.7481537  58.2379770  70.8074808  75.0360680
  25.4751017  77.5063903   4.4866955  26.1799719  76.9950397   4.0893089
  25.9050181  78.0104191   5.1776135  37.6489166  25.3092462  12.0281803
  37.9009441  25.4412682  11.1142456  37.7989105  24.3770964  12.1857464
  67.2953320  90.7781792  81.4834690  66.4411831  90.4000568  81.2744427
  67.5763321  90.3138638  82.2719383  93.1927776  80.2730083  79.9794769
  93.7778759  80.6215572  79.3068695  92.3829174  80.7723713  79.8746014
  18.4825471  23.0577022  16.7561733  18.2528642  23.1514484  17.6806652
  17.6950362  22.6965982  16.3491547  46.5495923  16.3376266   9.8885071
  45.8959249  17.0331556   9.8164665  46.0517171  15.5282003   9.7737229
  84.6126842  69.0331602  91.9457436  83.8343334  68.7065744  92.3971272
  84.2933941  69.3083143  91.0863400  86.1387062  58.1419563  73.0082512
  86.4654732  59.0069771  72.7608585  86.8164253  57.5355148  72.7096605
 109.6742774   9.0996742  86.6618061 110.4301930   8.6192607  86.3241386
 109.5193339   8.7239646  87.5284481  65.6165937  44.8811800  18.4422218
  65.3636030  45.7963163  18.5637009  66.2929395  44.7299940  19.1024697
  65.4448557  60.8799505  84.9264812  64.8805857  60.7681465  85.6915474
  65.1341391  60.2245378  84.3018818  14.7942545  98.1425078  27.5927460
  14.3407633  98.0326874  26.7569649  15.7220938  98.1733782  27.3595440
  32.8473094  34.7384149  18.6816513  33.2635740  35.1249391  19.4520771
  33.3729127  35.0488264  17.9443466  53.4456685  41.8551046  17.2046101
  53.9618161  41.0988409  17.4836933  52.5361684  41.5813238  17.3232853
  54.5121721  23.3652813  15.9806358  55.3845075  23.2863981  15.5945980
  54.6747068  23.5002691  16.9142258  70.9078503  57.2197485  86.5915298
  70.6405830  57.7762794  85.8600426  70.7964087  56.3265038  86.2660694
  63.2948163  37.4454958   4.3640148  63.5824922  38.0361349   3.6678803
  64.0839914  36.9628412   4.6099579  26.6010526  31.2181169  18.9146053
  26.8818286  32.1182520  19.0794098  26.4460614  30.8523256  19.7854721
  61.6128591  20.0219805  60.6821358  62.0338682  19.2982466  61.1460316
  60.8057454  19.6448452  60.3320419  52.5672677  25.8444483  23.2163822
  51.6858342  26.2112839  23.2852757  52.4346402  24.8967297  23.2381355
  41.2580874  85.9878047   2.2468674  40.6337740  86.6679604   1.9941723
  41.7653182  86.3803108   2.9574215  96.5400268   8.5636360  22.6990711
  95.9127928   9.1983063  23.0454838  97.2850968   8.6118109  23.2980549
   1.7584183  96.0294707  32.5867569   0.9838679  95.7751925  33.0883896
   1.4645054  96.0292466  31.6757977  22.6093295   9.1002733  37.8305542
  22.8656581   8.4799320  38.5129749  21.9689611   8.6239225  37.3021137
  85.3936005  82.0105362  91.8496799  85.1664639  82.3622227  90.9888935
  86.3494873  81.9609070  91.8435097  59.5164350  50.3571588  15.2652657
  58.9213708  50.8892805  14.7370827  59.8943857  49.7335226  14.6452057
 111.9015598  89.9728584  83.6257267 111.6183758  89.2894173  83.0183220
 111.8153191  90.7861137  83.1283188  43.4830907   2.1768314  55.6002247
  42.8844121   2.8786594  55.8556568  44.0348771   2.0405514  56.3704121
  37.8044751  34.8855192  26.8855774  37.0907501  35.5127794  27.0012390
  37.6673415  34.5255739  26.0092938  55.3678850   9.7475464  36.2092030
  54.4760373   9.4782049  35.9894383  55.3787759   9.7821981  37.1657097
  76.0307074  73.4320021  72.3699427  76.5964222  74.1164637  72.0125818
  75.6897736  73.8036060  73.1835175 100.2944469  46.8453121  88.7152481
 100.0896549  47.6388359  89.2098331 100.7180882  47.1627808  87.9177666
  50.1010278  24.1363508  26.0365784  50.6724313  24.8049004  26.4144241
  50.6214956  23.7451202  25.3349507  67.6290608  36.1899979  11.5654194
  67.7890921  35.4841752  12.1918690  68.1432653  36.9259770  11.8973267
  52.1595144  13.2707441  88.5123348  52.9021645  12.8270328  88.1026840
  51.5113735  12.5791740  88.6460495  96.6629029  54.6244704  41.2839138
  97.5173331  55.0539817  41.3250744  96.7975665  53.8788707  40.6989491
  13.7617972  84.2513020  17.4005043  13.8969519  85.1905353  17.5262272
  13.9760783  83.8628347  18.2486832  94.1545440  85.6197937  33.8987934
  93.8285304  86.5196259  33.9145767  94.4230319  85.4464633  34.8010742
  86.2612820  81.7577441  26.3326275  86.3541842  81.5012581  27.2501290
  87.0538569  82.2597749  26.1428368  61.7747068  15.1815510  90.0407124
  62.1876621  14.6268225  89.3789196  62.2937822  15.0373387  90.8319187
  54.1871881 105.7578071   1.9746601  54.4350863 106.2829478   2.7355778
  54.4303703 106.2969573   1.2220490  12.8220748  97.0943130  46.3315964
  12.2263145  97.7509845  45.9709263  13.1781291  96.6466714  45.5640841
  53.2142639   9.3208289  45.6846476  52.5277185   9.5667404  45.0646353
  52.9620600   8.4486127  45.9877443  90.2954245  40.3432245   7.9990208
  89.7869445  39.5408328   8.1167042  90.5619336  40.5899448   8.8846504
  69.2921591   9.7796184  86.0800362  68.4317541  10.1618731  86.2527084
  69.6211529   9.5302737  86.9436455  51.3166332  18.9210880  81.9404984
  50.7452297  19.6741831  81.7902470  52.1288586  19.2999864  82.2765923
  87.5148583  39.6900148   7.0512020  87.2375966  38.8826938   7.4843228
  87.7419854  39.4188149   6.1617672  33.2941818  19.5950735  80.1762295
  32.9531002  19.4231224  79.2985487  32.6211405  19.2547619  80.7656670
  71.7964245  67.3410816  15.1265347  71.3959909  67.0384128  14.3114960
  71.1124016  67.8582532  15.5518353  34.9512076  18.2301688  82.1453094
  34.0693903  18.1700039  82.5127411  34.8558378  18.8062060  81.3868046
  17.7465104  80.4894186  68.7401867  17.0965051  79.7934175  68.6437273
  18.2454681  80.4659916  67.9236555  97.0747138  59.3528218   2.1644699
  97.6560021  59.5945807   1.4434349  97.2882701  58.4379442   2.3478424
  94.0984393  46.7286546  14.4090283  93.7597371  46.6686935  15.3022873
  93.6502171  47.4863769  14.0332806  49.9798489  57.4526421  23.6288082
  50.7050885  57.2732557  24.2272007  49.2221249  57.5750886  24.2007267
   6.2998202  65.0516481   7.1262085   7.1770003  65.2511342   7.4533093
   6.1630156  65.6744821   6.4123547 106.0168744  78.7686975  16.2827408
 105.7825709  79.5952137  16.7048847 105.2897263  78.5896785  15.6865608
 101.5680276  12.8807580  64.5199156 100.6609069  12.8107083  64.8173332
 101.8418859  11.9757104  64.3711805  34.4226551   0.0812896  66.8078089
  35.2022147   0.5283501  67.1374369  34.4141197   0.2745548  65.8703613
  34.7926139 102.6700718  64.2951107  34.0371465 102.4322299  63.7575912
  34.4606876 103.3416343  64.8909807 109.4518615  35.0354595  19.2182171
 108.9923526  34.3193634  19.6567261 108.7623502  35.5203552  18.7646973
  66.7481137  55.5549815  12.1009552  66.4501286  55.1919041  12.9349816
  67.6383162  55.2186581  11.9977104  61.6048288  11.2802160  68.9618778
  61.2078571  12.1103573  68.6982298  61.1197329  10.6163979  68.4717131
  57.0128822  33.3221698  66.2778139  56.3904858  33.6351776  65.6213999
  57.4212265  34.1177249  66.6192484  28.3742141  59.1737271  87.4044228
  28.9552783  58.7487889  86.7735291  27.5386857  59.2538453  86.9443130
 102.6261092  79.7644384  20.4737103 102.9634429  78.9192326  20.1769459
 103.1893350  80.4102428  20.0471604  11.1702346  81.2681008  77.6808500
  10.5079364  80.8971525  78.2639360  11.2366103  80.6387663  76.9626856
  54.3423975  24.5496757   6.6743862  54.4483078  24.6680744   7.6183140
  55.2351225  24.5653112   6.3293850  48.8866711  37.6829028  90.7615948
  49.3838310  36.8655872  90.7941532  49.5516491  38.3638525  90.6598854
  71.5468264   9.3518001  70.7342768  71.9860172  10.1267278  70.3838062
  70.9443855   9.0836018  70.0404739  84.4349972 101.3659478  88.3639240
  84.6532104 100.5740977  87.8724098  83.5641763 101.1933297  88.7218380
  90.5183030  78.0329592  35.7092964  89.5823050  78.0877454  35.5165875
  90.7258607  77.1022303  35.6262600 105.4456664  26.0899432   2.2401249
 105.1974917  25.3146584   1.7365658 106.1000872  26.5290411   1.6968357
  60.7313347  26.3252664  73.6949730  60.9272432  26.6250134  74.5826674
  61.4042282  26.7336512  73.1503057  64.6872997   3.6660582  66.4603376
  65.2043581   4.2508173  65.9063196  64.4265032   4.2092502  67.2040844
  98.3969972  88.4660447  68.0775642  97.7031634  89.0692342  68.3440018
  97.9349635  87.6683426  67.8198338  29.7373319  20.3080130  56.8511438
  30.3392839  20.2289224  57.5911665  30.3052950  20.4577565  56.0953474
  64.2844915  11.8130732  85.2778435  63.6457443  12.4090040  85.6691170
  64.5519352  12.2469902  84.4676399   9.8084020 106.4075593  92.0441532
   8.9638280 106.5626460  92.4670792   9.5920371 105.9223261  91.2479305
  11.1965322   2.7094579  87.0740986  11.8085182   2.8292453  87.8002834
  10.9048927   1.8012740  87.1539688  58.4878445  26.4169240  87.6391029
  58.0001974  25.7907677  87.1039772  58.5783005  25.9861803  88.4891129
   7.3549273  64.0970809  20.4770386   8.0314829  63.4201808  20.4945385
   7.6709464  64.7350855  19.8372566  70.9565307  37.9480965   6.7807972
  70.5744506  38.8228221   6.7093765  71.8937541  38.0840178   6.6416275
   0.9636881  52.8198892  33.4305584   0.6662514  53.0480049  32.5498020
   1.8356421  52.4472664  33.2998764  61.0988712  32.4553037  89.7121143
  60.8256721  31.8910503  90.4354477  60.2833557  32.6863313  89.2673779
  31.6157913   2.3502293  67.3264027  31.0679483   2.6003554  68.0704069
  31.5233016   1.3991860  67.2698879  39.5805407   5.8452779  76.9265556
  39.2278910   6.4745373  76.2973499  40.4942560   6.1068177  77.0403767
   5.3479385 100.0129343  87.1314621   5.4007434 100.9584153  86.9917870
   4.6022462  99.8991526  87.7207279  56.0344171 100.8788133  92.0787621
  55.5132913 101.2689531  91.3770199  55.7204389 101.3056344  92.8759289
  65.9695602  54.2166324  14.2198479  66.6887380  53.7306490  14.6233761
  65.3623844  54.3876522  14.9397862  72.0950079   4.1684002  60.9990835
  72.1596336   3.2443139  61.2401628  72.9836750   4.5070249  61.1078835
  96.3972331  62.4042113   9.1752255  95.5530549  62.2890611   9.6114933
  96.1724759  62.5848092   8.2624828  31.6191768  90.4220808  91.0990810
  32.1793412  90.7070912  90.3771210  31.9529437  89.5561994  91.3337708
 103.2577611  39.5066185  16.7857563 102.9736758  39.5536037  15.8728897
 103.7254096  40.3285999  16.9336712  58.9564849  55.8236406   5.2379238
  58.1763435  55.3850661   5.5774319  59.5675040  55.1119204   5.0472939
 111.8955371  96.5760327  59.5350409 111.5144012  97.2455413  60.1031303
 111.7833350  95.7583547  60.0198555  62.3673964  14.4282198  63.5948372
  62.7485132  13.5644197  63.7524176  61.9930124  14.6823239  64.4383430
 107.0923234  67.9467781   3.3422577 107.1255828  68.2009060   4.2644989
 107.0847703  66.9897313   3.3576500  69.3900108  39.5246959  77.0434046
  69.9097776  39.0641451  76.3846397  68.9911366  40.2531242  76.5674543
  45.3826427   7.8570110  70.9338713  45.0456476   8.0682802  70.0632191
  45.9527111   8.5933924  71.1552286  89.4046689  52.2041878   2.2663319
  88.9835549  52.8078642   1.6543877  88.8954163  51.3968448   2.1949875
  38.2548618 102.1808029  74.3005371  38.4539508 102.1921355  75.2367353
  38.4266137 101.2788225  74.0300465  89.1487122   3.5767186  70.0068569
  88.5022926   3.1468946  70.5668783  89.9228191   3.6694464  70.5621862
  65.5779266  22.6735306  64.8429585  64.7614098  23.1631064  64.7437096
  65.4309511  21.8617177  64.3575859  14.0585565 104.3994581  78.6343002
  13.2477998 104.6023742  78.1676912  14.6187352 105.1608113  78.4833908
 112.1194933  91.7201925  88.0244732 111.6311882  91.1542822  87.4265289
 111.4703343  92.3459733  88.3457565  63.2483768  13.1309474  53.9303684
  63.1741142  12.1950531  53.7437725  63.6975288  13.4925973  53.1663609
  49.3370581  45.1966329  28.9963638  49.3553830  44.3898149  28.4816372
  48.6525536  45.7261671  28.5873615  65.6891466  77.8646667  19.4987499
  65.4373790  78.4502823  20.2128231  66.2389351  77.2012122  19.9156391
  56.4971447   0.6860024  91.9887066  55.7318974   1.2261844  91.7916393
  57.1735287   1.3131206  92.2445488  41.3036919  52.7757168  81.8703842
  41.1666536  51.8287468  81.8439484  41.8242407  52.9204321  82.6605225
 103.3889580  12.8395140  81.5645123 104.0128517  13.2637382  80.9754276
 103.2350540  11.9802189  81.1718845  83.8908292  72.6907928   8.6577999
  83.1703854  73.2862825   8.4514439  84.3364478  72.5551457   7.8215897
  99.8679925 103.0733044  12.7644741  99.2155887 102.7254422  13.3724224
 100.6196833 102.4883254  12.8593075  17.3238468  24.0398097  68.8778973
  17.4838209  24.7929096  69.4466543  18.0322492  23.4297395  69.0833616
  48.4380865  24.8374009  57.8271675  47.5384426  25.1633215  57.8526545
  48.4155560  24.1214395  57.1922493  22.7583792  86.2498076  19.5711815
  22.1664526  86.4646108  18.8502609  22.4873164  86.8281848  20.2840912
   6.0760310  59.8684849  19.4520580   5.9752181  60.7017202  19.9122631
   6.2590983  59.2331893  20.1442444  67.7938486  81.4114530  42.6804268
  67.8011108  82.0901020  43.3554184  68.4200741  81.7188342  42.0249951
 100.1652766  88.2433970  29.5057594 100.3289224  89.1799195  29.6170151
  99.2853499  88.1967695  29.1318810  56.7635489  70.4473073   9.6088230
  56.2911237  71.2579830   9.7981655  57.6200915  70.5679209  10.0187218
  58.1533766  12.5929594  70.8852959  58.4383869  12.3515940  70.0039625
  58.0540943  11.7576611  71.3420773  22.5930547 107.1035481  80.1316452
  22.5473117 107.1514155  81.0865498  22.4680995 106.1757592  79.9320745
  48.2611418  30.4501319  89.8775196  49.1058016  30.3656316  90.3198338
  48.3741474  29.9771643  89.0530396  72.1501637  16.1524618  43.4559488
  73.0030489  15.9116209  43.0942726  71.8023205  16.7974091  42.8400898
 102.4882317 103.6587842  18.8339722 102.1854640 103.9003212  19.7093212
 103.4354115 103.7939627  18.8623821  36.4672663  59.6794338  32.7658951
  36.9091036  60.4020865  32.3200428  36.4133933  58.9880569  32.1061051
  84.4076920  22.4217224  74.5298386  84.9868011  23.1344533  74.2598772
  84.6414566  22.2560501  75.4431486 102.5151111  70.5658336  11.2975037
 102.0293094  71.3631959  11.0866940 103.4324027  70.8392282  11.3052380
  49.1787148  16.9121099  82.0320606  49.9057531  17.4915564  81.8042850
  49.3108988  16.1363721  81.4870930 102.5002147  73.4915574  30.2829659
 103.1357814  73.0027897  29.7600948 102.9802276  74.2632253  30.5835545
  68.3022928  18.3229446  76.0901690  67.8891802  19.1863716  76.0823584
  68.4894514  18.1386411  75.1697159  93.4100962  30.2612026   6.8936836
  93.8750506  30.0688798   7.7079689  93.4055091  31.2169130   6.8404781
  30.0193837  24.5305616   1.5224564  29.9618676  23.5757811   1.5588009
  29.2251542  24.8352367   1.9613182  86.1043931  90.2571828  29.2029297
  86.4081288  91.1452205  29.3909943  86.3349820  90.1145632  28.2849323
  78.7412691  11.1634052  66.4663792  79.4505978  10.8580363  65.9008408
  79.1553164  11.8031156  67.0456600  64.9336624  19.6829331  89.3419456
  64.6324492  19.6636093  88.4335804  64.5767736  18.8838542  89.7296810
   5.0580885  90.1476676  51.8799984   5.8262255  90.6234915  52.1958840
   5.2702811  89.9250872  50.9735405  52.3788073  80.3489096  13.4496700
  52.6853087  80.8838470  12.7174580  53.1024744  80.3630741  14.0760433
  40.7349110  38.3408070  86.1375237  40.2979374  38.0917692  85.3231144
  40.0665188  38.2254624  86.8129349 101.3363839 100.0659783  42.2656071
 100.5707074  99.5707209  42.5566303 101.7617989  99.4951851  41.6257298
   8.3246424  96.0867054   0.2601444   9.1814711  95.6889136   0.4145538
   7.8823664  95.4799492  -0.3335560  49.5410585  24.5238352  73.6502075
  49.5279264  24.0106559  72.8423023  49.8754692  23.9191794  74.3126202
  46.6398478  43.3578491  88.3259487  47.3046064  43.0697155  88.9515018
  46.0687447  42.5975704  88.2161617  82.5012446  64.8488088  16.7459786
  82.1619511  65.4359670  16.0704338  81.7334367  64.3651993  17.0506489
 103.5265780  77.6758153  18.8567459 102.5936747  77.7005036  18.6438858
 103.9115191  77.1167190  18.1818688  22.4646425  27.6203442  27.9940057
  22.3165679  28.1810021  28.7555623  21.6733313  27.7210855  27.4649382
  67.5841046  48.3665754  14.0794003  67.3193432  47.8317870  13.3309853
  67.2589136  49.2431874  13.8743794  90.0954057  90.8835752   7.8685581
  89.5262481  91.6107113   7.6164448  89.5623685  90.1014860   7.7256024
   5.1203349  78.9491065   6.4337074   5.1593974  78.3381350   7.1695244
   4.3780234  79.5190103   6.6347515  47.7127314  21.8629408  73.8747358
  47.6769543  22.4283671  73.1032181  47.1177149  21.1414385  73.6707115
  31.6530513 102.4785761  55.0219202  32.1788024 102.6341850  54.2373180
  31.2484073 103.3252085  55.2108860  98.7571622  65.3653510  25.2028477
  99.4759942  65.3600163  25.8348953  98.8472796  64.5376284  24.7306358
  87.6923943  16.0872900  90.8018970  88.1184864  16.9001698  90.5300522
  88.1073570  15.4093719  90.2685547  64.5488596  33.5277152  63.6734152
  63.8173723  34.0215516  64.0439272  65.2330160  34.1822600  63.5329437
  63.0006790  30.2893448  77.5495005  63.7366915  30.8700085  77.7427578
  62.5393581  30.7189846  76.8292046  73.4671974  13.0513787  69.2970514
  72.9611015  12.8481007  70.0836754  74.3617964  12.7882874  69.5131779
  91.7573024  69.4424601   5.4683888  91.0621167  68.7852938   5.5013191
  92.2055484  69.3593271   6.3100445  35.0827074  26.3918042  84.9549007
  35.7749319  26.4470744  85.6136894  34.2718410  26.3536644  85.4621220
  74.2084242  87.0275290  48.3278286  74.5550609  87.4483545  49.1145813
  74.2786671  86.0898788  48.5070145   2.9275944  42.2941155  56.7816078
   2.9241278  41.8023796  55.9603798   3.6849453  42.8750510  56.7097199
  71.4480972  15.9644783  65.5239010  71.2722397  15.2842069  66.1739302
  72.2702074  15.6966019  65.1132774  61.1970472  52.6757908  91.8280029
  60.4703331  53.2044268  91.4983654  61.1101532  51.8385124  91.3723183
  50.3934669   8.4324121  80.6535912  50.8472061   7.7928436  81.2025070
  50.9710884   8.5539335  79.9000549  99.3318845 103.7590249  18.0969441
  99.2800332 102.8032763  18.1067001  98.5435057 104.0463717  18.5575020
  88.2612514   0.9896954  86.3171482  88.7232018   1.6235217  85.7684231
  88.8181686   0.2112847  86.3046646  41.6866922   7.1982306  81.8367577
  42.1359730   7.9539973  82.2151661  41.1281061   7.5690114  81.1535835
  95.2155495  30.7870722  86.5918636  95.2193356  31.4131904  85.8678532
  94.9969387  29.9495912  86.1831379 100.5586482  79.5449693  12.7478420
  99.7049285  79.9362118  12.5625622 100.7582618  79.0256865  11.9689095
  67.0628119  14.8511441   5.9231960  67.7118564  14.2358239   5.5820954
  67.5713445  15.4689057   6.4485562  24.3985418   2.3059017   4.2001164
  24.8534015   1.8014986   4.8745835  23.6040309   1.8033106   4.0201580
  49.5641184  21.2021232  82.4592304  48.8513994  20.7247496  82.0345211
  49.4861078  22.0958328  82.1254349 106.8003989  68.9835711  22.9449093
 107.7222253  68.8068981  23.1326782 106.8188620  69.5956440  22.2092068
  27.4641418 103.8293508  78.2934809  27.2617816 103.2997448  77.5222492
  26.6760921 104.3531618  78.4378195  27.9868840  94.7585691  81.4553452
  28.5139655  95.5465258  81.3228989  27.4111222  94.7243500  80.6914330
  22.0377444 102.2817851  86.5532875  22.6437186 101.6742737  86.1290741
  22.3403834 103.1490481  86.2840366  64.4038439  21.4047623  78.3495283
  64.5512819  22.0644617  79.0272379  63.8365793  20.7560205  78.7661552
 100.3929139  65.7918651  32.3319447 100.7987882  65.7840962  31.4650833
  99.5512057  66.2276764  32.1984112 109.3880484 105.2675963  90.0132751
 110.2924392 105.1615754  90.3083420 109.4041083 106.0556964  89.4702530
  13.1199934  83.9436872  14.7551739  12.2541144  83.5525401  14.6390068
  13.1366064  84.2209656  15.6711876  83.5809470  92.0800693  10.3746712
  82.8521872  92.7005394  10.3619969  83.2581759  91.3420422  10.8917534
 101.0524131  56.5632869   3.6784374 101.9116879  56.2340499   3.9420235
 100.4813100  56.3627819   4.4199669  63.9569902  46.0141611  87.9671097
  64.3742132  46.8378353  87.7146912  64.0415812  45.4560661  87.1940613
  54.8288583  86.8304492  89.7067642  55.2561998  86.2878681  89.0440273
  55.2919053  87.6672125  89.6662235  58.7272119 106.6233839  83.9333344
  59.1434144 107.4135689  84.2777348  59.4575833 106.0523649  83.6951447
  87.5422668  13.9699876  65.2207136  88.0069160  13.8688374  64.3899870
  88.2153034  13.8405049  65.8889055  98.1657029  80.0605233   7.0030510
  97.7659465  79.3687947   6.4758503  98.2846499  80.7883151   6.3928044
   2.4387648  50.5314044   1.3076603   2.9771569  51.2129847   0.9054005
   3.0552962  50.0134925   1.8252384  83.1275178  75.9856875  31.3098061
  83.6521579  75.1873930  31.2488663  82.2639609  75.7300980  30.9854901
  62.6898671  73.9927251   7.3646271  63.5398961  73.5791833   7.5151646
  62.6434828  74.6899183   8.0188477  11.1177924  82.1632178   6.6779053
  10.9303858  83.1018813   6.6828644  10.4025557  81.7735250   7.1807110
  39.1921616   6.7895406  84.5124531  39.9961209   6.3102293  84.7128105
  38.8779497   7.0963454  85.3629684  61.7282820  18.0775917  84.2504406
  60.8321714  17.8150904  84.0399265  61.6458702  18.5845268  85.0581837
  38.7080908  29.0342712  91.8761921  38.8492775  29.3615985  90.9878540
  37.8022695  28.7248921  91.8763065  76.0597897  10.8927441  64.7774839
  75.8306217  10.7422853  65.6945848  76.9353819  10.5172920  64.6847010
  43.6566257  19.2284358  80.7967186  44.2519569  19.3232417  80.0531960
  44.0707207  19.7281098  81.5003395  75.9487534  38.2782125  87.6882458
  76.4303684  39.0214133  88.0514717  75.2070570  38.6740398  87.2305965
  55.1605272  26.9306779  79.2187023  55.9219837  27.0241237  78.6462688
  54.5708179  26.3484073  78.7397146   4.8712065  70.7366319  16.5500366
   5.1224425  69.8176951  16.6431534   4.6157553  70.8232136  15.6316292
  25.3463125  30.2810073  75.0565100  25.8999419  30.4205227  74.2882252
  25.2267861  29.3321395  75.0964737  65.9902239  41.4566422  82.3321438
  65.2239704  42.0298624  82.3095322  66.7206430  42.0232868  82.0838833
  86.3116837  93.2084901  27.5300324  86.8617297  93.0877907  28.3040630
  85.4669667  93.4934599  27.8785622  73.3523893  29.5976639  43.7565374
  74.0171576  30.1552987  44.1607094  73.8528442  28.9367557  43.2780218
 110.3521014  92.5546534   7.4164402 110.6932593  92.2176487   6.5880310
 110.5352641  91.8614681   8.0506146   3.6170482  86.2053800  79.7695923
   4.4845294  85.9193874  79.4833899   3.5753106  87.1288777  79.5213175
 103.1962205  44.7956688  14.1162693 103.9670611  44.2391373  14.0053284
 103.5456038  45.6864620  14.1417420 102.1644164  61.4293189   5.8744347
 102.4191905  61.6545911   4.9796879 101.3001777  61.0279949   5.7835400
  55.6597662  44.0823460  83.3467674  55.8677816  43.9159393  84.2661572
  56.4188480  43.7524462  82.8659439  49.5535278  39.5745182  86.3223362
  49.5912981  40.2881622  85.6855392  49.9240446  38.8220644  85.8610725
  81.6073418  84.1177828  35.3639900  81.8979932  84.8797328  34.8628056
  82.4145413  83.6504633  35.5790817  23.5108855  56.9766514  24.9726879
  23.0654623  57.7415918  24.6084034  22.8722479  56.2679262  24.8946964
   3.6673500  64.4934864   7.6903164   4.0690520  63.9139934   8.3376610
   4.3891385  65.0375779   7.3753273  54.2182159  47.8708458  68.0593967
  54.9581003  47.7859449  68.6607218  53.5165834  47.3656034  68.4700966
  92.5272370  85.7133586  21.4329064  92.4135781  85.7787592  22.3810780
  92.7189542  86.6082199  21.1523735  39.6080399  37.9124022  91.3759613
  40.2350378  37.5085235  91.9759464  40.0328350  38.7230873  91.0956478
  58.4845304  52.8657150  89.2444992  57.9614687  53.2586575  88.5457611
  58.0920982  53.1965828  90.0524330 111.6039849  31.2359793  18.5264885
 110.8841420  30.8097870  18.0612862 111.5354825  32.1584184  18.2802212
  63.5230828  70.5907447  28.8390362  64.3741990  71.0281022  28.8624966
  63.6786128  69.7908170  28.3368885  59.7124195  40.7837248  86.4234638
  58.8786507  40.4991722  86.0491753  60.2486229  39.9910760  86.4441395
   6.4538004  36.9148011  11.2058079   5.9718039  36.3923545  11.8468678
   6.9324973  36.2711329  10.6835282  85.6023026 102.5771935   4.1203797
  86.1294604 102.3331769   4.8811638  86.0983611 103.2800992   3.7007630
 106.5109826  84.6655161  37.1683418 106.9516087  84.6504385  38.0179608
 105.5803777  84.7320325  37.3823082 100.3486157  85.1074870  31.9241154
  99.7134877  85.8077557  31.7742169  99.8422242  84.4098766  32.3402130
  69.5345497  16.9737589  90.9781837  68.9531803  17.7257991  91.0907745
  70.4148817  17.3328471  91.0891056  45.0570965  26.6248107  58.8036489
  45.8579397  26.8979931  58.3561563  45.0043964  25.6821251  58.6461735
 104.5291282  45.1375140  20.0921356 104.1379691  45.2197732  19.2223942
 104.7536183  46.0345061  20.3396046  49.2976999  48.3845758  88.0855751
  50.2256727  48.4108543  87.8523254  48.8554811  48.8227606  87.3584747
 112.1144391  60.0891424   1.0360729 111.8965627  60.5156351   1.8648445
 112.9592133  59.6690680   1.1977017  80.9685851  77.7651985  14.5070946
  80.2243996  78.3020408  14.7795307  81.4863730  77.6514585  15.3040802
  58.9791346  47.4267054  90.1580238  58.8910294  46.8602800  90.9245968
  59.9192333  47.5936556  90.0903702  55.0914145  29.3980837  69.0215969
  55.2707338  30.2199030  69.4784212  55.9263563  28.9301586  69.0337849
  73.4788466  53.2420784  25.8585369  72.6852251  53.4571061  25.3684723
  73.9456225  52.6219648  25.2983486  41.8835452  19.4429237  39.9844753
  41.9070199  19.1124899  39.0864288  41.3798526  20.2549059  39.9278366
  66.0355020  12.1632035  10.0035679  65.2869917  11.6648085  10.3315365
  65.7965422  12.3908074   9.1050541  14.6516516  35.8981438  23.8849747
  14.5967581  35.9817226  22.9330170  14.1103651  35.1357908  24.0900814
  49.8106241  44.3998289  74.1649675  49.4599533  45.1510859  73.6865616
  50.3853083  44.7843981  74.8268414  66.8394661  16.4708865  86.6398239
  67.6354599  16.0506690  86.9654751  66.1611700  16.2164164  87.2654438
  10.7758716   5.9911997  30.0558579  11.4378122   6.6822464  30.0330937
  10.1612237   6.2705547  30.7343876  54.2701530  10.7982230  84.0020084
  53.7487364  10.0087476  83.8568115  54.7375584  10.9315789  83.1774044
  87.7797700  68.7231727  12.6868641  87.2593785  68.8045282  13.4861195
  88.0140782  69.6233351  12.4609482   4.8405268  80.4495509  18.6704838
   5.1958277  80.3196700  19.5497524   4.1492321  81.1015708  18.7854016
 103.1613398  42.8577693  18.2498848 103.5713149  42.3878224  17.5237286
 102.9726935  43.7271101  17.8964817   7.8108027  81.1826904  27.5731766
   7.7603056  81.1545427  26.6177284   8.0243590  82.0936735  27.7750027
  31.4347148  13.7488353  72.4392176  30.9017992  12.9845464  72.6585197
  32.0262718  13.8502836  73.1848669  82.1743918  52.2792685  24.7447121
  82.2413112  51.3363491  24.5941841  83.0731631  52.5988653  24.6653378
  64.5849038  52.7230060  25.5897724  65.0813175  52.5860760  26.3966477
  63.7388159  52.3072348  25.7556164  82.1873093   5.1212454  39.1276073
  82.7787018   5.8714092  39.1887307  81.4574146   5.4345703  38.5934567
 101.1049367  65.0708289   3.6233627 101.5529967  64.2451437   3.8069927
 100.2958251  64.8114057   3.1826126  18.9877891 101.2065048  85.8277607
  18.2778501 100.6139523  86.0749531  19.7849321 100.6931520  85.9591293
 105.3300191  82.5156815   3.9325249 104.8272897  83.2487400   3.5773861
 105.2899648  82.6351554   4.8813927  62.0716978  67.4969454  13.4169018
  62.3089743  66.7914898  12.8150189  61.1980964  67.2615154  13.7293541
  43.1134843  91.7410911  81.9836426  42.6806020  92.4175120  82.5045109
  42.4037980  91.1620594  81.7056370  34.3066835  98.6308981  74.2667818
  33.5862493  98.0728382  74.5596552  34.5444202  99.1411138  75.0409889
 106.6023970  29.5531161  14.3696320 107.0980359  30.1135690  14.9666798
 106.6645242  29.9925740  13.5215485  90.3144455   2.5000060  78.2427263
  90.7109642   3.2684875  77.8323126  90.4707527   2.6211971  79.1792679
  72.5984430  32.4059772  84.8658085  72.3688364  31.5283298  85.1711750
  73.4497356  32.2970080  84.4419479  81.1281204  23.2562280  86.6967201
  81.2286377  24.1870356  86.8960381  80.6072426  23.2380962  85.8938503
  20.5142787   3.4303028  28.1935227  20.9088138   4.1733629  28.6500752
  21.1619380   3.1835348  27.5333130  82.2545195  80.8224638   0.5357086
  82.3346568  79.9838049   0.0813305  83.0792285  81.2730892   0.3539860
  39.0421796  37.8504491  83.7747002  38.3363843  38.1511068  83.2022572
  39.8145008  38.3297825  83.4747124  75.0866271  53.4109158   8.3667290
  74.5695926  53.8687037   9.0295517  74.6710325  52.5520811   8.2898247
 101.7879487  61.1572356  52.1293461 101.3378049  61.3425393  51.3051712
 102.2623063  60.3422083  51.9651901  16.5937331  76.4656551  23.9460385
  17.4842837  76.2594135  23.6621391  16.6050246  76.3231690  24.8925125
  16.4005327  42.8401423  85.1108646  16.3862967  42.4981451  86.0047722
  17.2659600  43.2390881  85.0208092  44.3447685  49.7534561  82.4373055
  44.5887947  50.2740812  83.2025719  44.8942184  48.9717388  82.4943352
  98.3934546  55.2794327   4.9615013  97.5903512  54.8127946   4.7301972
  98.7235261  54.8199521   5.7336151   2.4009659  68.3129759  33.3502209
   1.7820790  67.6003332  33.5094368   2.0589068  68.7585933  32.5752079
  57.9246381   1.8753988  16.4042675  57.1495679   1.3871653  16.6819870
  58.1110910   2.4647171  17.1351349  28.5453271  93.3462144  90.4401302
  27.8841209  93.7288690  91.0168648  28.1095742  93.2740248  89.5909309
 105.0369025  85.8153493   1.2528908 104.8214770  86.5648062   0.6977951
 104.5891620  85.0760634   0.8415329  24.4850969  48.3161020  87.6007366
  25.0518513  48.5917187  88.3211994  24.8228073  47.4576616  87.3452663
 105.7300521  93.0830128  19.2183315 104.9804402  92.5216467  19.0203869
 106.4882899  92.5887091  18.9069283  69.6273804  31.9090033  53.5364771
  70.0349903  31.2230897  53.0076933  70.2027321  32.6666498  53.4307575
  86.0242940  69.8235412   1.4423477  86.0371877  69.8590691   0.4858982
  85.8518315  68.9041991   1.6455757  97.6284982  44.2378075   0.9042942
  98.5572863  44.0161998   0.8373940  97.4269391  44.6770115   0.0780308
  86.3594341  19.1687500  76.9241095  86.0792732  20.0765252  77.0410872
  85.8518600  18.6764121  77.5692463  26.4200973  93.6295713  92.2724819
  25.9419488  93.0350042  91.6944695  26.0340642  93.4856690  93.1364822
  40.2011776  50.2696466  66.0072851  39.6081829  49.9458504  66.6853285
  39.7072530  50.1764441  65.1926804  56.6260242  43.0816031  85.5523014
  57.4984503  43.3870697  85.8008766  56.1823463  42.9205799  86.3850403
  83.7715816  47.8461885  84.9899673  83.6417675  46.9144487  85.1667213
  83.4280109  48.2874727  85.7667923  78.2334423   2.5693566  80.9990025
  78.3853722   3.4970328  81.1794662  77.9166698   2.5497714  80.0959492
  52.6714563   7.0503217  86.2826633  52.5755358   8.0025262  86.2643147
  53.2462978   6.8818480  87.0292664  58.5495949  35.9637547  70.6410456
  58.7142134  35.7396293  69.7251320  57.9310083  35.2985907  70.9429455
  99.5306254  47.7122141  15.4474079  99.4245101  48.5405616  14.9796307
  98.9899731  47.0908148  14.9597656  62.2398472  31.2043738  83.3847904
  62.1575069  31.0669041  82.4411011  61.4475632  30.8139849  83.7537289
 104.9431420  83.9401133  22.4289047 105.0821925  83.3213980  21.7119038
 105.4063893  84.7318108  22.1553147 102.8330157 103.8706104  51.6481113
 103.3404849 104.1806791  52.3981524 103.4014700 103.2281662  51.2234259
  88.7232257  84.7853692  37.6314079  88.5183955  84.9706872  38.5478794
  87.9285003  85.0256331  37.1550476 100.1911307  77.7015550   6.7300331
 100.0810433  78.6430867   6.5972531 100.5019284  77.6215727   7.6318371
  99.5909978  59.7425486  23.6752140  99.3414212  59.0018423  24.2277443
  98.9434768  59.7443856  22.9702675   7.3496344  66.8445594  32.6807701
   6.4159396  66.8405969  32.4699604   7.7872946  66.8578072  31.8295967
  16.3626813  86.2181092  66.9053078  16.2034558  86.5687156  66.0289764
  15.7131385  86.6520024  67.4585342  43.6028910  29.0195656  82.5399399
  42.7446890  29.4103599  82.3756123  43.5200024  28.6137486  83.4028816
  28.0135106  99.4518424  71.6904831  28.5580491  99.2711068  72.4566698
  28.6189889  99.8223568  71.0483408   1.2742140  22.8097327  12.6136696
   2.0040371  22.5408609  12.0557320   0.6088593  22.1347983  12.4794876
  34.2646694  28.8660860  87.6978874  33.5422015  29.3039298  88.1479549
  33.8394785  28.3237910  87.0335388  57.8078127  22.2350383  68.7769842
  57.8297758  21.4573216  68.2193947  58.7276316  22.4195886  68.9669800
  73.9051486  56.9449480  36.9273865  74.1786981  57.2246696  36.0537922
  73.1473280  57.4940820  37.1283543  64.6971798  17.0017934  92.4085617
  63.9017630  17.2913241  91.9616699  64.8002863  17.6156318  93.1357479
 106.1769772  93.7839110  27.9951584 106.1577750  93.7810071  27.0381558
 106.3674975  92.8766878  28.2336533 104.8663828  94.0268159  60.0525045
 104.4000933  94.1077209  60.8845282 104.5468948  94.7600246  59.5266104
  44.9814466  12.5706322   0.4343331  44.1684774  12.0905334   0.5918991
  44.7612050  13.1938536  -0.2580059  97.6343776  82.0225866  14.3502342
  97.1401406  82.4573715  13.6553108  98.3456183  82.6298411  14.5542347
  16.6601469  88.6106021  18.1935036  16.7718890  89.1004164  17.3787415
  16.8357279  89.2503173  18.8835537  74.1511012  96.1676247  24.1010391
  74.0919686  95.4692729  23.4490883  74.7913409  96.7800076  23.7386524
 110.0434829  76.3728936  11.1763966 109.9510718  75.6882389  10.5138695
 109.2242051  76.3403780  11.6703140  81.4289523  86.8330987  32.1511089
  81.7205811  86.1658604  32.7723801  82.0034600  86.7224081  31.3935291
  56.5629768  27.7265406  74.0226555  55.7022715  27.8423166  73.6201477
  56.4416170  27.0100307  74.6456480  18.5758975  96.7246897   3.7560188
  19.0089896  96.9896538   4.5674717  18.4413245  95.7819874   3.8531315
  48.2708645  16.1657703  91.1914062  49.1896772  15.8978975  91.1755276
  47.7912903  15.3946042  90.8888435  65.3427124   9.0767527  82.5174332
  66.0464478   9.7238266  82.5652218  64.5766115   9.5295978  82.8699303
  18.1377509   8.3873445   6.3566887  18.0804256   7.4953110   6.6990673
  17.2861532   8.5422213   5.9480107  99.2174388  71.9202645   7.4316036
 100.1056577  71.5730555   7.5137341  99.3258286  72.8699322   7.4827301
  75.8246851  16.7743731  84.4398975  75.4785252  16.5437460  85.3020000
  76.1139441  17.6820660  84.5329380 103.3131886  12.4381483  87.8028965
 102.7949047  13.2428801  87.8063107 104.2115784  12.7325070  87.6529598
  80.1697922  40.3964710  78.7796831  79.2939186  40.7825136  78.7869644
  80.1148796  39.6901584  78.1359911  62.8956271  62.2537841  26.3169396
  63.0018664  62.3245837  25.3682911  62.5022531  61.3913847  26.4501965
  89.5971347  58.4080447  29.1846859  90.3537370  58.1896852  29.7288429
  89.9755002  58.7376006  28.3695328  66.2340403  21.9848895  83.4945583
  66.6287422  21.1461735  83.7333012  66.1907148  22.4720597  84.3173695
  53.4030962  63.3491802  89.0149021  53.3130741  62.4083948  88.8630676
  53.1190872  63.7524366  88.1945610  88.7152576  33.1588221  71.5046787
  89.1833210  33.9592147  71.7424345  89.3647194  32.6303959  71.0407782
  24.2546323  15.9038383  26.7296421  24.1875222  15.2773077  27.4501908
  25.1708272  15.8573992  26.4564144  17.2990993   0.5429108  35.4938614
  17.2542575   0.6400902  34.5426666  16.4020208   0.6923372  35.7924473
  55.4196119  33.2109141  83.3838558  55.4977274  32.6241755  82.6316166
  55.3111506  32.6258969  84.1336727 105.2580167 101.2363703  46.0205280
 105.8674098 101.7681391  46.5324795 105.2512885 100.3873808  46.4625752
 111.2123109  89.8179348  13.5693180 111.5851975  89.0521581  14.0061009
 110.9147120  90.3802998  14.2844498  23.8253977  82.7697952   1.1691582
  24.1933730  83.2232268   0.4107201  24.5233347  82.7928336   1.8238270
  17.6901534  84.6516879  29.5903885  17.5365641  83.8896735  30.1489365
  17.5574686  84.3265874  28.6999142  95.5942059  63.6657763  52.2037840
  95.7685566  62.7326536  52.0808315  95.8281517  63.8349295  53.1164074
  79.9970007  50.0788164  90.9141636  80.2592754  50.9063339  91.3174820
  80.1011276  50.2268696  89.9742317  91.2700462   4.4619873  88.6457348
  90.6944847   4.3274853  89.3986416  91.1632729   3.6704424  88.1182098
   8.5323336 105.7286913  16.5975964   8.3348181 105.5192072  17.5104725
   9.3778994 105.3111441  16.4335835  67.4922729  94.9537117  18.2762825
  67.9063130  95.8130438  18.3559429  67.7717758  94.6316941  17.4193012
  60.9344724   1.9631559   3.0279648  60.6507829   1.5109951   2.2334206
  60.3233293   1.6677219   3.7028420  32.3566964   7.4471600   0.8980190
  32.7922586   6.9620163   0.1971924  31.7268804   6.8260033   1.2637150
  33.0196428  26.2422872  70.6529903  33.6593151  26.2255621  71.3648701
  32.6542878  25.3576756  70.6384563 111.8879033  90.2124937  25.5344879
 111.2950421  90.9413154  25.7176888 112.5894404  90.6001289  25.0112164
  70.8809710   9.4267315  88.4680462  71.6417742   9.9522084  88.2205009
  70.5138350   9.8796314  89.2272091   6.3230517  95.7086117   2.4280846
   6.4059451  95.9959729   1.5188038   6.9168856  94.9611552   2.4981320
  56.3515663  39.2057323  68.2294989  57.3004436  39.1315365  68.3312845
  56.2358761  39.7206187  67.4309158  89.3404055 100.2105887  27.5707256
  90.2798177 100.3849251  27.6285660  88.9510060 100.7711966  28.2417881
  24.3745902  86.2213023   7.0757210  24.1852095  85.3035433   6.8805611
  25.2859499  86.2208159   7.3683750 104.1240836  77.7802713  48.3586895
 105.0618697  77.6213367  48.4660351 103.7046004  77.0211227  48.7636006
  31.2390661  50.4520273  84.3365860  31.1718154  50.1426792  85.2399254
  30.9348345  49.7145700  83.8076019  75.3305864  56.7452955  80.8061409
  74.7848749  56.5342760  81.5637112  75.5675840  55.8944321  80.4372311
   6.1796524   6.0866064  87.7634621   6.6542007   5.7214367  87.0166683
   5.5766918   5.3915399  88.0271816  71.6070080  39.8667622  79.5883942
  71.9926977  39.3272209  78.8981962  71.8504047  40.7628727  79.3560648
  93.8210297  23.2564592  88.5851288  94.1026306  24.1218281  88.2883549
  93.9040565  23.2913208  89.5380783   0.7407477 101.7469533  29.9177658
  -0.0592134 101.6786702  30.4389584   0.5162384 101.3416321  29.0801918
  85.9599209  18.3778298  83.7555599  86.2556076  18.6409521  82.8840256
  85.0052166  18.3590400  83.6890411  65.0330976   0.3201324  25.0173866
  65.1745847  -0.3903978  25.6429779  64.1224626   0.5815918  25.1538193
  19.9358180  96.0180743  16.6808331  19.8769572  95.4059823  17.4143898
  20.4597571  96.7451794  17.0170414  62.7839995 104.5831664  22.1075642
  61.8324376 104.6164353  22.2058117  62.9857207 105.2859767  21.4898312
  48.6789322  52.2100878  91.7957306  49.4987249  52.6853466  91.6604614
  48.7317848  51.4658642  91.1960888  57.0389080  38.8940477  86.0307407
  57.5691414  39.0384483  85.2470112  57.1592712  37.9664040  86.2337780
  14.4670680  92.0188673  19.9835217  14.6166518  92.9477413  19.8073017
  13.8421156  91.7453129  19.3120873   2.3819735  85.6834252  29.7204411
   2.9317858  86.0450871  30.4155266   1.5045216  86.0141594  29.9125969
   8.6426593   4.7612786  86.8782330   9.0883304   5.0710398  87.6666832
   8.3819439   3.8642937  87.0872307  98.2018757  73.8256693  78.6471319
  98.2336426  73.2799816  79.4329071  97.3012161  73.7423611  78.3339214
  90.7699013  11.2943780  68.1794643  91.2915707  10.7679379  68.7852287
  91.2161827  11.2033606  67.3375702   9.7373965  78.5137684   7.6529514
   9.7462847  78.9998062   6.8283856  10.6431296  78.2280667   7.7723419
  78.9887763  79.0084965  20.2379524  78.8966990  78.1901462  20.7258618
  79.9266053  79.1983635  20.2635014   5.6317141  63.9514692  34.7870743
   5.1856997  63.2394023  35.2456104   5.7217982  63.6375852  33.8873017
  79.3392802  53.1264317  16.0083306  79.4201661  52.3165542  16.5120995
  79.5281363  53.8209219  16.6393959  42.6949361   1.3172419  20.0722325
  42.2186902   0.4955561  20.1916325  43.5864881   1.0474855  19.8517906
  54.5323706  37.7256846  78.3734083  53.5926914  37.8983998  78.3150005
  54.8413658  38.3127642  79.0634012  93.2422256  49.7178507  87.2695255
  92.7655029  49.2854118  86.5610313  92.5654316  50.1724672  87.7710342
 112.9775524  26.8241262  91.5513420 112.6476765  27.4621081  90.9185791
 112.4105835  26.9293833  92.3153496  40.4469728  96.5699065  74.6503830
  40.7091760  96.7412508  73.7458801  39.6957063  97.1451504  74.7950363
  96.1788226  78.0869610  18.4103119  95.9637977  79.0080006  18.5575592
  97.0286799  78.1067951  17.9703343  79.2271996  28.0086827  84.6499443
  78.5907269  28.7010002  84.4715405  80.0004005  28.2579160  84.1437149
  81.5804435  58.1508602   2.7769959  81.4913941  57.9040600   1.8564522
  81.4028645  59.0913380   2.7910721  71.5932274  15.3821516  74.6235752
  71.1597538  15.9091067  75.2948809  72.1308804  16.0078263  74.1380930
  73.3180238  60.0369443  20.6997120  72.6673342  60.7323767  20.7956707
  74.1472579  60.4499079  20.9406769  43.6563543   0.5272848   3.6966526
  42.8071550   0.1111252   3.8446915  44.2857221  -0.1929634   3.7335217
  57.7614546  10.0443542  71.7021847  56.9105816   9.9756861  72.1352339
  58.2646894   9.3055135  72.0443869  65.8936357  74.5180798  68.6603785
  66.7074823  74.2215014  69.0677166  65.9570694  74.2192411  67.7532339
   0.9937575  91.3262303  19.7913181   0.3132060  91.9155176  19.4660103
   1.3397219  90.9029706  19.0055763  90.4273415  20.9287906  90.3146648
  90.9945297  20.2600265  90.6984425  90.5710602  21.7045403  90.8566856
  60.6779909  29.8554707  72.0539808  60.3236341  30.4880571  71.4290857
  60.1013088  29.0952468  71.9782972 102.6503468  41.8535423  88.4722233
 102.6383591  42.6923752  88.9331436 102.7253628  41.1994982  89.1670895
  97.5277377  86.4226849   7.4029457  96.5924216  86.6000516   7.3031437
  97.5726987  85.4930813   7.6266586 102.2798634 100.8957322   3.4839737
 102.0511580 101.0107453   2.5616371 103.2338858 100.9706576   3.5053169
 108.6146737  97.4785025   4.7016442 108.5666657  96.8503459   3.9809811
 109.3914271  97.2168906   5.1960575  83.7450314  33.9464808  90.6045341
  83.3686447  34.5226526  89.9392605  84.6746635  33.8984084  90.3815556
  68.7677860   8.4007430  83.3095646  69.4939947   8.1897151  82.7227688
  69.1678762   8.4498703  84.1777515  87.1016979  42.5208855  65.0996113
  87.5627232  43.2461834  64.6781540  87.7937031  42.0063543  65.5150795
  64.8947334  86.6947937  84.7921753  64.4518089  86.1758804  85.4635715
  64.5478725  87.5796700  84.9057865  82.4194336  52.2660017  90.4551983
  82.8234100  52.6891375  91.2128258  83.0884743  52.3087502  89.7719765
  57.8714850 100.3053696  25.9258282  58.1976130 100.9478362  25.2956688
  57.4663451  99.6257670  25.3870976  84.9295712  28.6102462  87.1868134
  85.2442360  27.9503441  87.8046703  84.7697830  29.3854570  87.7250862
  91.9713497  16.0148764  71.6209888  92.6836777  15.8846927  72.2469902
  91.7278957  15.1303697  71.3478470  46.2501147  75.8144672  44.8166191
  45.9368994  76.7189724  44.8164189  47.1909144  75.8867462  44.6556484
  87.9760552  69.5714409   6.5444958  88.3956958  69.7069223   5.6949150
  88.1355334  70.3850503   7.0228588 102.3344421  31.8127060  48.3330297
 102.8345013  32.3257494  47.6982355 101.8584251  31.1736417  47.8027153
  66.0985231  63.4917450  85.4248238  66.0180569  62.5887251  85.1177120
  65.7322645  64.0195751  84.7152615  45.4606489   1.3913233  23.0210030
  46.1582998   1.1388094  22.4162304  45.1959089   2.2640402  22.7302944
  35.9674120  41.3805485  67.1766520  35.4497576  40.7188463  66.7179441
  35.5064082  42.2028112  67.0105457  69.5569944  30.6658196  85.0814629
  70.4325581  30.2882671  85.1655674  69.4516277  31.2035203  85.8663177
  98.2301617  47.2108126  82.3819733  98.8298130  46.6274405  81.9168568
  97.7363873  46.6326332  82.9634571  78.3423711  83.6932952  11.9153034
  78.6471988  84.5770104  12.1211254  78.7946177  83.1313260  12.5444996
  55.5062246  71.2480211  89.1922569  56.0798264  71.7418718  89.7781944
  55.6514740  70.3323984  89.4305134 101.0673095  89.9346931  15.4829514
 101.3186456  89.0255125  15.6455910 100.2016593  89.8752577  15.0787842
  67.8659868  36.7780471  76.7114258  67.0563555  37.2886443  76.7074680
  67.9909849  36.5201616  75.7981348  76.0685945  61.4613564  23.0565941
  76.2856198  60.5755491  22.7659428  75.8561755  61.9324924  22.2509014
  61.1455059  26.7798972  64.6476412  60.4570389  26.1348438  64.4859266
  60.8839369  27.5434804  64.1331005 101.7399550  97.5712044   3.5401737
 102.2723199  97.5324042   2.7456295 102.3208667  97.9509480   4.1993916
   0.9610894  83.0598314   5.5034840   1.2494471  82.5825579   4.7254765
   0.9220173  83.9741189   5.2227986  38.1944803  16.1206705   5.0672257
  37.6811746  16.4084989   5.8221447  38.0039600  16.7671377   4.3875134
   9.4063381  11.3408834   5.1013767   9.5370439  11.5779573   6.0194981
  10.1438669  10.7667238   4.8949349  56.1081316  77.9902418   5.5848992
  56.2151339  77.4166305   6.3436806  55.6978991  77.4356158   4.9213326
  96.1929036 101.7810614   1.1840069  96.3953162 101.2497981   0.4139244
  96.0128642 101.1430914   1.8745148  95.1958085  78.2820041   1.2190640
  94.2843295  78.3523304   1.5027725  95.6391764  77.8421338   1.9444382
  46.4789820  56.0507059  76.4817905  46.5788126  56.8886423  76.9335938
  47.2113943  55.5204821  76.7959118  44.7341493   3.5581095  21.4818012
  45.4852536   3.6805279  20.9012043  44.2109159   2.8787023  21.0565197
  85.3937531  41.1980200  85.7437420  85.5369473  41.3618755  84.8116016
  84.4488907  41.2957621  85.8617210  97.1247722  78.0867631  56.7349827
  98.0345441  78.3512719  56.8713009  97.1730948  77.3925073  56.0777867
  70.8574677  30.9117126  77.9691458  69.9501228  30.6114674  77.9161739
  71.0701799  31.1896586  77.0782280  77.4454403  42.2008038  92.3492527
  77.9936457  42.4594069  91.6084194  77.3246384  41.2575531  92.2400665
  72.8866816  60.2353764  87.6080894  72.3481035  59.6027660  88.0834389
  72.4734068  60.3028440  86.7473412  46.9035482  16.8048179  60.2050734
  47.3227453  16.7990851  59.3445683  46.1044121  16.2916481  60.0856161
  85.6552506  70.6243701  58.2030785  85.1120663  71.3933034  58.0300915
  85.6135178  70.5103428  59.1525471  17.4634555  14.1443712  11.5577423
  17.0316652  13.7481815  12.3145878  16.8205980  14.7637493  11.2122929
  21.4305880  82.0909889   5.1241886  22.1139624  81.7598898   4.5414364
  20.6384184  81.6278679   4.8517811  75.6464268  80.0269706  10.9973538
  76.5983225  80.1036818  10.9322273  75.3896929  80.7303221  11.5936863
  18.5480311  80.9224732   3.8457596  17.9245284  81.6481597   3.8164436
  18.7012007  80.7010419   2.9271996  22.0672372   3.6883337  13.7129414
  22.3595336   3.3083565  12.8844464  21.1120275   3.6396963  13.6749661
   0.3089383 104.2865689  19.5368683   0.5259707 103.6428912  18.8624680
   0.6723502 105.1090605  19.2087376  18.2803729  66.0610290  10.0350582
  17.4204829  66.2778361   9.6747696  18.7158110  66.9068320  10.1411163
  75.9077549  46.9273663  76.4271069  75.5269289  46.2288523  76.9593477
  75.3251982  46.9968939  75.6707811  29.4284728  78.1033714   1.2987148
  29.8186018  78.7525923   0.7134545  29.1614058  78.6050613   2.0689213
  10.2047255  78.7659342  29.9046433  10.7606890  79.3875129  30.3744995
   9.9872305  78.0991967  30.5560982  77.5061321   2.8539503  66.0835409
  78.2863283   2.4819808  66.4948368  77.8075027   3.6769682  65.6987715
  26.3359454  69.0915163  11.4424622  26.8257048  69.6889026  10.8772194
  25.9771635  69.6524973  12.1300709  89.0912963 101.2127669   3.9407551
  88.6283923 100.4726059   4.3333161  89.9023009 101.2824185   4.4443905
  36.8400672  20.4982502   5.6844341  37.0247129  19.5590574   5.6915390
  37.5093559  20.8695919   5.1096356  99.2236806  92.8347023  25.4931271
  99.5099259  92.1840270  26.1341583  98.2925368  92.6526172  25.3664505
  99.0789986  97.7530940   5.6764710  98.3957816  98.3614762   5.3948414
  99.2468835  97.9873354   6.5892517  29.2169240  31.7169077   8.0726158
  29.9937728  32.2265322   8.3028710  29.2752269  31.6069776   7.1235382
  82.0888377  67.9604692  23.8818657  82.8418971  67.6255412  24.3686402
  81.3479043  67.4471242  24.2039311  13.7193110  72.7935691  46.5286648
  13.3123782  71.9680007  46.7914784  13.0673220  73.2142026  45.9681236
  89.1074324  81.5169556  59.6096146  88.4226943  80.9370716  59.9429428
  89.4959832  81.0341747  58.8801109  99.3982077  78.6128385  32.8159344
  98.7146235  78.5369666  32.1502125 100.0735904  79.1527088  32.4052822
  11.2009718  48.9425857   1.0437309  11.0811999  49.7499151   0.5436241
  11.6632655  48.3562059   0.4448425  41.7008307  74.2224104   7.4522602
  42.2382166  74.0153034   6.6876995  40.8764746  74.5425780   7.0859825
  90.1088096  65.4270453   0.3171742  90.2838803  64.9258156   1.1136353
  90.0508834  66.3353260   0.6136524  72.0565653  39.1626906  83.7307072
  71.2983084  38.5839772  83.6509132  71.6843033  40.0443935  83.7466812
  89.6037769  51.7322397  77.5176907  90.3480339  51.8925476  76.9374990
  89.9228764  51.0807419  78.1421566  90.9285642  86.6531451  13.7953102
  91.2522078  87.0871527  13.0059349  91.1462785  87.2558363  14.5063698
  81.3198281  93.6801178  37.7498161  81.4191771  93.2342584  36.9086373
  81.1375857  94.5908005  37.5181305  84.7143936  78.1929541  77.5904894
  83.9108753  77.9584885  77.1261454  85.2555275  78.6250210  76.9296455
  20.2498105   4.2152054   1.3289368  19.7611240   4.8251039   1.8816006
  21.1289504   4.5902998   1.2775337  82.0639420  40.8874464  91.3807201
  82.2584915  40.0025558  91.6895103  81.1847591  40.8230734  91.0077190
  62.9843903  50.9260607  88.7957954  62.1410894  50.7604170  89.2172623
  62.7723503  51.0291147  87.8680801  85.4051685  37.6847792  68.4841156
  85.1389790  36.7653751  68.4926081  85.5411530  37.9032826  69.4060659
  77.9450130  30.9279895  54.9759626  77.1805000  31.3620996  55.3545141
  78.2028723  30.2812171  55.6327963  74.1304065  68.8855762  14.3208420
  73.2987977  68.4753640  14.5582974  73.9717866  69.8241801  14.4213020
  65.9754562  38.3514905  78.9214659  65.6389761  38.0742240  79.7736025
  66.4630222  39.1542411  79.1061449  88.2740260  85.4696281   9.7095883
  87.6407386  84.9375184  10.1912892  87.9589272  85.4573257   8.8058197
  77.2287130  38.7543082  65.1111889  77.2998762  37.9332256  64.6243715
  77.4167585  38.5121989  66.0179663  21.4252713   7.7222568  11.3486206
  20.7595924   7.5900013  10.6736290  22.2225622   7.3461372  10.9756672
 103.3160449  66.8250115   4.1034424 102.7481795  66.3016434   3.5378945
 103.4146882  67.6567490   3.6400711  95.4574108  41.6233397  70.6491613
  94.5999908  41.6524601  71.0736752  96.0295010  41.2060499  71.2932253
  11.8284419  78.4265597  24.8706352  12.3249342  77.7113898  24.4728195
  11.3501646  78.0147774  25.5903065  99.0481759  97.3467619  11.9363987
  99.0592290  98.2439454  12.2698223  99.7905255  97.3061450  11.3334858
  66.6901779  34.8144984  83.9528847  66.9880104  34.4561362  83.1167603
  67.3155785  34.4773912  84.5943356  39.6752790   8.9508659  20.3981220
  39.2464021   9.3858940  21.1350357  39.1209653   8.1930811  20.2117550
   4.4835474  51.9589182  26.5620720   4.2811587  52.6323467  25.9126389
   3.6326840  51.5874977  26.7951023  72.6138640  79.7370250  13.2859528
  72.5556088  79.7513349  14.2412674  73.1594420  80.4926951  13.0679142
  88.2556249  93.1158478   6.6396629  87.8432322  93.9771540   6.7053520
  88.5003854  93.0371816   5.7176315  88.7471486  72.5199981   5.1466381
  88.5124637  72.2427852   6.0322487  89.5319606  73.0554254   5.2633392
  57.9070237  13.9325840  19.8249733  58.5558561  14.6258099  19.7037804
  57.7533010  13.5916979  18.9438355  49.2273954  13.4717161  20.9118664
  49.9333242  14.0931398  20.7337391  48.4253743  13.9829237  20.8038914
  54.2714691  51.7888498  80.8458519  55.1119757  51.4587975  80.5282784
  54.4702673  52.6603556  81.1881733  48.1300738  96.4535410  26.0060036
  48.3745959  96.5405972  25.0846684  47.6551726  97.2604353  26.2050450
  17.4181178  99.0183957  73.1017506  17.7249052  99.0285952  72.1950924
  16.8318274  99.7724087  73.1647122  91.0918475  85.2584417  10.1517117
  90.1414777  85.2235730  10.0430119  91.3558675  86.0577757   9.6960938
   3.2984831  45.6281836  18.6414539   3.6917784  45.2942569  17.8351986
   4.0393498  45.7578213  19.2335140  60.7382298  43.2793713  82.2766495
  61.4083958  42.8158426  81.7744064  60.4653788  43.9977980  81.7059994
  33.6459783  13.9253361  25.0795948  32.7175382  14.1228277  24.9561894
  33.9628461  14.6170599  25.6604206 111.7596579  70.2445729  25.5306732
 112.0206452  70.9750540  26.0914910 112.3289395  69.5226975  25.7972157
  21.3069346  82.8547366  18.7179386  21.9767191  82.3194320  19.1434586
  21.7947009  83.5730703  18.3150589 108.5671569  93.6241610  37.2645199
 108.8004733  94.2392523  37.9598343 107.6724768  93.8638337  37.0229923
   4.4981291  48.7056593  52.9888642   4.0332606  49.4328834  53.4027207
   4.1084626  47.9214014  53.3753025  89.5618820  34.1325092  77.0733452
  90.0804329  33.8544512  77.8283453  89.1627598  34.9580860  77.3478651
 100.7352019  61.0553153   8.8031685 101.5800620  60.6062503   8.8311970
 100.2860356  60.6737311   8.0489361 108.2627965  74.2710383   9.7499573
 108.5489941  74.0545805   8.8625633 107.6680184  75.0122602   9.6356880
   8.4008028  88.2892592  10.9674656   9.3466570  88.1690199  10.8830273
   8.0621626  87.4107702  11.1401283 100.4507447  96.1571534   0.5187905
 101.2181903  95.6802971   0.8348000  99.7265912  95.8234627   1.0483944
  24.3539336   7.5114471   2.0686066  23.8535503   6.9618542   2.6717674
  24.4140485   8.3585436   2.5102532   2.7222588  63.6149032  16.2054836
   2.2644045  63.2299371  15.4582226   2.6262858  62.9679365  16.9043839
   4.5464804 105.7704194  11.5412247   5.0172808 105.9722455  10.7326233
   5.0649645 105.0799305  11.9542992 107.5513363  25.7941127  86.8234062
 107.9502392  25.1709270  86.2161636 107.9810619  26.6269398  86.6285419
  29.6042728  94.8357452  58.9015818  29.6337938  94.8892105  57.9463339
  29.0936088  94.0464163  59.0816259  89.4763470  35.0289583  58.8755131
  89.7861576  35.2658486  59.7496605  89.7747707  34.1279411  58.7516499
  46.3279440  74.8762758  15.1213753  47.1674445  74.4342096  15.2480137
  45.6888297  74.3020518  15.5433190   6.4695075  59.6429552  23.4682953
   5.6652453  59.1805239  23.7039768   6.9851973  58.9962835  22.9865181
  24.2134765   2.1424467  40.2391827  24.3428329   2.9516012  40.7339203
  24.3176368   1.4460260  40.8875477   5.9855082  72.2981007  22.8628742
   6.3503363  71.4165492  22.9403317   6.7426398  72.8558023  22.6841461
  53.4681559  41.1129379  78.0467987  53.6688089  40.8017731  77.1641064
  52.9146433  41.8817377  77.9096889  10.1833701  47.8663301  78.5567760
   9.8279512  47.5332880  77.7327681  10.6064320  47.1077871  78.9591026
   9.1594222  79.7131045   5.1986420   8.4455588  80.3392131   5.0777447
   9.0789416  79.1121609   4.4579518 110.8550311  80.2561290  15.0329315
 111.6544772  80.0362666  15.5112374 111.1272813  80.2941473  14.1160500
  73.6530399   1.7379119  90.7781029  72.9420996   2.0564628  90.2219296
  74.4139481   1.7041947  90.1983452  32.8802636   1.3583977   5.9699452
  32.0852855   1.6862614   6.3903534  32.5690416   0.6971437   5.3517925
  32.6937869  33.1080419   9.6871197  32.4197009  32.9880983  10.5963623
  33.5563091  33.5184652   9.7491181  62.9698229  30.6056714  70.4212570
  62.4601030  30.0057650  70.9658051  62.5450563  30.5707526  69.5641804
  10.7353308  99.3313868   3.7188351  10.3730013  99.7215540   2.9234039
  10.5175784  98.4018071   3.6502850  21.6076759   0.2428085  15.1633942
  21.6748479  -0.2375382  14.3381703  22.3635677   0.8300526  15.1609146
  37.4655107   6.5786440   9.8751366  38.0414108   7.2631294  10.2157986
  36.8436101   7.0449573   9.3165409  46.0543111   9.0222914  20.5861485
  45.1519254   9.3398506  20.5531227  46.1422876   8.4695990  19.8096001
  84.1791392  98.5654242   6.0313904  84.5237161  99.4573338   6.0760319
  83.2895804  98.6689646   5.6934559  64.4354200  55.5204010  89.5227146
  65.3898144  55.5935764  89.5204830  64.2672205  54.5795679  89.4700718
  64.3827680   3.4048540   6.1329567  63.6978868   3.3307774   5.4683697
  64.7985986   2.5427849   6.1454785 110.0478507  93.5043175   4.4077503
 109.1517878  93.7334521   4.1611874 110.5951930  94.1207631   3.9212906
  68.1583309  52.7015305  90.7967281  68.8081312  53.1210661  91.3606262
  68.3141994  51.7637157  90.9082794  89.1371346  75.3452015  85.2504826
  89.7115707  75.5283499  85.9939289  89.7337055  75.2134180  84.5136166
  17.9431822  88.5398562  21.6372120  18.7530138  88.9082844  21.2841427
  17.2689917  89.1793091  21.4074242  19.9125864  97.7805407  22.3988640
  20.4686644  98.5016234  22.1038258  19.0332224  98.1566222  22.4376785
  10.4282903  84.4993282  70.1808882  11.2897014  84.1536737  70.4148102
  10.2883481  85.2252865  70.7888603  43.2130480  27.4351192  44.0708494
  43.8205051  26.7275023  43.8551855  43.7641811  28.1130576  44.4618559
  85.7041789  89.3975384  17.2693646  85.1412059  88.6253960  17.2137844
  86.0288335  89.5219476  16.3775360  42.7764609  82.1845443  11.9342339
  42.5935366  81.3551266  11.4928257  42.9318526  81.9410307  12.8468048
  25.3570655  20.3362638  25.8806336  25.8728460  19.7744352  26.4590370
  25.2560809  21.1536962  26.3683140  95.0767184  84.7776563  18.1387818
  95.0535870  84.1769202  17.3939240  94.6930981  84.2793186  18.8603985
  19.3902495  78.2466681  22.3235809  19.6675780  77.3696883  22.5885880
  18.5099604  78.3397753  22.6877987 113.0290175  96.9702227   8.2155335
 113.0509187  96.3454659   7.4906647 112.5996543  96.4960034   8.9275658
  18.8899996  85.0900085  34.7346413  19.1442015  84.6381481  33.9299977
  17.9334643  85.1108797  34.7056591  95.3737164  92.9249008  41.7167866
  94.4820119  93.2667644  41.7817986  95.9303094  93.6541159  41.9900715
 102.8283692  95.0762970   1.7346871 103.2709838  94.8359091   2.5486481
 103.3702565  95.7728894   1.3640892 105.3943157  62.4273205  77.9639721
 104.8730373  62.2980022  77.1716452 104.8053741  62.1885204  78.6797619
  68.6644700   3.8825828  13.5915386  67.8984121   3.4551985  13.9746010
  68.6396650   4.7743732  13.9384281  65.5991865  97.2302802  19.8499119
  66.2155224  97.5905354  20.4875481  65.0895453  96.5890772  20.3452503
  18.8645174  99.1843922  62.4378311  19.0450861  98.3210595  62.0659649
  19.2023089  99.1354020  63.3321011  87.4720764  27.7564049  91.0859108
  88.2583904  27.5464678  91.5897560  87.3191261  28.6857200  91.2568092
  83.3159351  63.8794327  83.0818176  82.5692940  64.0372372  83.6596203
  83.6336422  63.0119848  83.3324909  87.7403736  55.0440502  80.8286381
  88.3860016  55.6177616  80.4160023  87.5705528  54.3655539  80.1751614
 103.7154723  91.3938983  43.8035309 104.5691396  91.3848741  44.2364323
 103.7556983  92.1439917  43.2102596  53.1694272  13.3113796  23.2310688
  53.9832452  13.6101801  22.8252804  52.8231004  12.6596291  22.6215565
  55.9520152  75.3332098   7.2313416  55.9043124  74.7740371   6.4559185
  56.8839648  75.5287178   7.3286926 103.7544632  48.3834600  79.3707466
 104.0694523  48.9064932  80.1079369 104.4016743  48.5281897  78.6805296
   6.0495807  20.1657820  73.0029392   6.6270019  20.7616425  72.5256920
   6.3173057  19.2924488  72.7168512  30.5859568  98.7616808  23.3650219
  31.4340308  99.1503174  23.1506359  30.7557776  97.8202994  23.3996498
  35.6514171  16.6930801  16.7255795  35.3542903  16.9568045  17.5964367
  36.6048101  16.6516954  16.8001377  27.0863773  30.6758118  84.8507023
  27.6309539  30.8540225  84.0839481  27.3648502  29.8089361  85.1460075
  35.9348586  82.6652296   0.5498516  35.7219698  83.2666547   1.2634384
  36.4751913  83.1831987  -0.0467861  75.2591515  63.5916138  84.4921780
  74.3747950  63.9449692  84.5884991  75.7471466  63.9639044  85.2266788
  46.3321927  27.3920805  28.7149441  46.9498876  27.4553759  27.9864704
  45.9193185  28.2547552  28.7545120  32.3749831  26.8096239  15.9975731
  32.6175788  26.3906700  16.8233215  31.4744523  27.1040613  16.1338913
  46.5973333   0.3195841  12.1639168  46.4445737  -0.3381460  11.4854729
  46.0465005   0.0413305  12.8956234  76.9786882  80.3406525  90.1360798
  76.2320757  80.0332260  89.6219921  77.0046282  79.7563410  90.8937931
   5.2874472 104.3826277   2.1052658   4.7095778 104.6386321   2.8241169
   5.0033286 104.9206622   1.3663304 105.2150727  89.4036944  12.1973622
 104.6782351  89.9973137  11.6723358 105.8677436  89.9708612  12.6079380
  38.9366820  84.9272711  31.0323155  38.8320639  85.4401238  30.2309048
  38.8848307  85.5721123  31.7378151  44.4377187   3.2614357  34.4879925
  45.2181962   2.7073461  34.4957935  44.5293096   3.7930948  33.6973107
  11.3326266  44.2702593   9.9775326  11.6089728  43.4555997   9.5577824
  11.5457060  44.1473277  10.9025776  20.3061774  82.6454217  46.8761456
  20.7754042  82.4464757  46.0659134  20.7583620  82.1334488  47.5466931
   3.4925320  98.1650765   6.2355911   3.0379679  98.8106711   6.7767155
   4.2947390  97.9690964   6.7196285  87.4780369  68.7125301  62.2664404
  87.2768784  68.7763691  63.2000828  87.5907993  67.7750778  62.1092796
  14.7629310  74.0483093  88.9663982  14.4970085  74.8689175  88.5515213
  15.1409294  73.5316467  88.2547665  12.5752928  94.2723305   9.8745930
  13.5233786  94.3984969   9.8363888  12.2211649  95.1532109   9.9965489
  38.1465009   5.1211626  42.4024784  37.2418025   5.1478035  42.0909702
  38.5581353   5.8904249  42.0087540  66.8185377  52.2585583  82.6204300
  66.5047312  51.4257288  82.9727840  67.7577877  52.1257496  82.4923515
  96.2387276  45.2686977  90.3123379  96.1413002  45.0792313  89.3791485
  97.0878983  44.8935223  90.5455303  97.8305244  58.0759668  75.9741449
  97.8898144  58.4093666  76.8694401  98.1914520  58.7779999  75.4327393
  63.6492729  99.8349762  90.3825188  64.0330505  99.9209213  91.2551880
  63.5141134 100.7364559  90.0904655  74.9837208  47.6008272  85.1210690
  75.8406448  47.5576401  85.5453968  74.6059322  48.4251690  85.4276085
  48.7963727   6.2360317   9.6602070  47.9939988   6.7367107   9.8076641
  48.9105466   5.7251055  10.4615509  72.5411844  17.6716483  80.9504509
  72.5459480  17.5879598  79.9969292  73.4592533  17.5759363  81.2038708
  52.3724463  68.8981731  11.9386780  51.5859702  68.3644290  12.0518696
  52.1074297  69.7762663  12.2124493 104.1653824  37.3242521  65.7274199
 104.2798805  36.8830228  64.8857307 103.2166767  37.3754621  65.8439064
  76.5645170  75.7571220  71.0327816  77.2243786  75.6858110  70.3430510
  76.2072897  76.6394520  70.9322023  64.1875219  49.2630863  90.6654835
  64.9306011  49.7145224  91.0658169  63.8935089  49.8539829  89.9722099
 105.8172512  63.5339642  61.1170435 105.9503460  62.6283026  60.8372307
 106.4449024  63.6594534  61.8287611  61.0154819  38.3837700  89.1667938
  61.8401194  38.5655999  89.6175098  60.9347773  39.0867662  88.5221863
  21.6123869  78.7629159   4.9796116  21.4997961  77.9122598   4.5554268
  21.5554717  79.3965848   4.2644512  77.2180414  63.6118984  86.5068817
  76.7633152  63.0762815  87.1569347  77.6556349  64.2911911  87.0200157
  28.2679132  14.4916231   1.5953171  27.5201085  15.0733692   1.4589703
  29.0251258  15.0766451   1.6198837  49.6208384  93.1326015  12.9913342
  50.5441477  93.2211549  12.7548992  49.6057322  92.4266632  13.6375916
  74.1266727  48.1284952  88.1631184  74.1526508  48.8248014  87.5068283
  73.5546017  48.4688854  88.8509464  24.0253213  19.8456461  39.6709168
  23.8826659  20.1227838  38.7658894  23.9411691  20.6495363  40.1836693
  72.8130817  33.0454612  80.8796597  72.0981264  32.7837467  81.4598083
  72.8529119  33.9981651  80.9633350  75.6550074  31.1512089  83.6606598
  75.6165171  31.3649774  82.7284336  76.5905380  31.0927367  83.8545513
  44.3559984  -0.2867144  28.9453995  44.7030690   0.3933746  29.5226776
  44.2785981   0.1399977  28.0920803  85.9039593  53.9791536  64.5024920
  85.6130695  54.1545963  65.3973818  86.8586731  54.0325546  64.5461750
  86.1182690   5.7967079  63.0281496  85.6193733   5.1371384  62.5461721
  86.7038155   5.2901292  63.5909414  59.3341592   9.4560844   2.1676552
  60.1926187   9.0912563   2.3825752  59.4983915  10.3887064   2.0280850
  98.9091206  71.1471319  65.9787464  99.6379948  71.6503143  66.3417530
  98.2578945  71.1289120  66.6800308 106.3725281  29.0872765  71.8220139
 105.4432774  29.0398026  71.5973330 106.6996098  29.8406768  71.3304520
  91.1296844  25.5006957  90.5861282  91.6301155  24.7010517  90.7485199
  90.2175426  25.2441239  90.7218075   6.2295581  64.0360022  75.0429678
   5.7474662  64.7556543  75.4502964   5.7584335  63.2482100  75.3143692
  31.2023547  91.5684969  16.3517582  31.3639643  90.6290157  16.2652027
  31.8417742  91.8627579  17.0004284  10.5110505  10.4173452   1.6959011
  10.0065330  10.5818350   0.8992588  10.0414136   9.7079975   2.1346390
  31.9326117  80.4132588  35.0855839  31.7778971  79.5863707  35.5422604
  32.8794100  80.5431993  35.1396000  87.1026897  55.5718517  85.0921154
  87.4313641  55.0349808  84.3710232  87.0517063  54.9701405  85.8347893
  76.6766024  65.1786470  90.2452946  76.1884069  65.9671879  90.0084496
  77.5570583  65.4941797  90.4489326  56.5826371  30.4198439  14.4732773
  56.1894658  29.5471270  14.4783127  55.8955720  30.9900839  14.1283142
  85.8133507  41.8942738  82.9864216  85.2302647  42.5999880  83.2660580
  85.7727623  41.9147396  82.0302963  80.3979829  20.9571201   8.2874691
  79.9527791  20.9162790   9.1338455  80.7335046  21.8521244   8.2362759
   0.1076748  33.6069465  74.5224142  -0.0234555  34.5544100  74.4857121
   0.7969619  33.4355140  73.8807535  75.2625230   4.3036396  28.1581127
  76.0935548   4.7771341  28.1204998  74.6256784   4.9067242  27.7747643
  92.1177387  65.8068562  86.1511326  91.3562107  65.4586983  85.6873608
  92.3117542  66.6323805  85.7071781  37.0539001  20.0537521   9.4894421
  37.4576381  19.1999084   9.6449482  36.3177255  19.8680002   8.9065373
  27.6555827  85.2681024   1.5276920  28.4839156  85.7295735   1.6586125
  27.0713904  85.9265859   1.1517250  60.5092004   8.1443197  12.8328526
  60.2133420   7.2342569  12.8549206  60.1616338   8.4892876  12.0104038
  98.2063389  58.5839939  71.2929201  98.8488483  57.8926420  71.4524221
  97.7615452  58.3166695  70.4886007  92.0709419  18.1062841  67.3617506
  91.6655159  18.7215638  66.7507744  91.3489056  17.5520933  67.6580143
 107.4445010  99.2289288  32.1960175 107.1202279 100.1122792  32.3714363
 108.0273057  99.3327124  31.4438259  19.7509005  99.2808468  10.2209007
  20.6474593  99.4988902   9.9661743  19.3071654 100.1266940  10.2831471
  90.4977036  59.5089531  54.5237923  89.7401142  59.9015951  54.9575186
  90.6968880  60.1060200  53.8026333  56.0411409  13.7017710   9.9777805
  55.6858304  13.0247003   9.4019711  55.2969888  13.9743835  10.5145752
  31.6542723 106.1964257   3.6497891  32.0045664 105.5650027   3.0214417
  31.2772181 105.6579430   4.3455612  48.1463960  18.9319975  29.1003334
  47.6521352  19.1473610  28.3094132  48.4919790  19.7717888  29.4029152
  98.2564405  29.4622023   9.8713123  97.5189451  28.8640196   9.9917805
  97.9164747  30.1491243   9.2979061  76.7724752  63.3197880  74.6269703
  77.2592306  62.5406790  74.8958492  77.1287394  63.5395479  73.7661505
  11.0447504  90.2384789   0.0029480  11.5247061  90.5608423   0.7658112
  11.3673403  89.3461854  -0.1234806  99.6171761  50.7255888  59.3904591
 100.2426529  50.0014782  59.3644238 100.0629425  51.4434147  58.9407396
  50.8530191  14.9768383  14.4109833  50.2924302  14.5005400  15.0234520
  51.3008836  14.2921574  13.9141285  24.2122653  12.4760754  16.6924202
  23.7454465  11.8577988  16.1302292  25.1300767  12.2119219  16.6286099
  48.3197168  13.9072592  10.2265560  47.5326684  14.1240961  10.7263291
  48.3382085  14.5504457   9.5178902  23.2402137   4.5107824   5.9723675
  24.1628984   4.3260176   6.1477196  23.0542329   4.0476448   5.1555741
  76.0478210  33.8491845  78.8532019  76.7210388  33.8062286  79.5322943
  75.2978802  33.3888698  79.2299461  78.7107611  68.7116051  76.8395615
  79.1133404  68.9324331  77.6794434  79.4418812  68.4278917  76.2907457
  55.6855825  36.9539816  20.6990254  56.1748937  36.1932928  20.3857243
  55.9033922  37.0123178  21.6292870  97.0752335  52.0270109  81.7405605
  97.1813107  51.1159468  81.4667988  96.5941906  52.4384069  81.0225201
  52.4125483  79.3101795  28.8162243  53.1031039  79.9243839  29.0654576
  52.6785662  78.4786088  29.2086041  85.8388805  23.2585120  87.3258972
  85.8376884  22.3653007  86.9818020  86.7530155  23.5363793  87.2677040
  42.7296212  14.8977978  21.0353100  43.2106164  15.5392486  20.5124199
  42.4268201  15.3896601  21.7986118  15.1944830  69.8087974  23.9406979
  14.4754984  70.3050668  24.3318665  15.5649378  69.3097396  24.6686661
 110.6301689  53.4816265  85.7597733 109.7005749  53.2534456  85.7545090
 110.7110882  54.1719007  85.1015949  72.4388790  80.8901691  82.5744247
  72.5745869  80.6995869  81.6462517  73.3214903  81.0027313  82.9273605
  77.6159242  30.3561003  18.5956680  78.1897596  31.1156923  18.4958851
  76.9077256  30.5070478  17.9696476   3.8499596  98.5002072  28.8375103
   4.1756298  99.0678198  28.1389439   3.8249495  99.0630324  29.6113503
  67.4154329  86.5576267  61.4141989  68.2515049  86.9159222  61.7122650
  67.6476908  85.9819126  60.6856108  90.3902531  54.5170450  79.3076324
  90.8570099  54.0418291  79.9950457  91.0824966  54.9027443  78.7707186
  15.1131060  90.0829632  35.2010452  14.4072726  90.2046306  35.8360588
  15.7269385  90.7937272  35.3861153  99.2585850  34.2863560  89.0435791
  98.3431053  34.5117784  88.8783169  99.7556210  35.0143433  88.6704636
  57.9169750  57.6574183  91.0399246  57.5421715  57.7345133  91.9173145
  58.6378527  58.2870913  91.0312462  73.4926367  68.6750174  83.8552380
  73.8243198  69.5178080  84.1649532  72.7005816  68.5250425  84.3713665
 101.8164062  31.8899989  59.2335415 102.0709229  31.3809919  58.4638882
 102.6210880  32.3311234  59.5057869  80.2403692   9.4928200   8.7002670
  80.5901292   8.6983139   9.1035854  81.0154298   9.9872095   8.4336292
   6.7735149  23.1380296  74.7745371   6.8061401  22.7276659  75.6386948
   6.2379982  23.9212060  74.9013567  94.8381901  54.1391993  71.0444212
  95.4555225  54.1378832  71.7759466  95.1553726  53.4488821  70.4621077
  10.8594134 106.3156874   4.4309818  11.0761836 107.2424252   4.3289768
   9.9116518 106.2759001   4.3029225  -0.2522705  66.2357802  21.2009728
   0.2708437  66.9863088  20.9193909   0.3471138  65.4915745  21.1450874
  14.5779754  49.3469429  69.3953609  13.7281467  48.9301348  69.5378542
  14.3966247  50.0557089  68.7781143   0.7246592  92.4773891   0.3773606
   1.4412310  92.3806746   1.0045731   0.6683209  91.6253479  -0.0551784
  85.0810909  37.4912310  90.3121185  84.1484070  37.6325560  90.4744625
  85.4630089  37.3882270  91.1837673   1.9305469  37.9031539  82.5457001
   1.8696930  37.2686100  81.8316364   1.7120887  37.4015522  83.3311272
  84.8202896  88.4333706  70.9481907  84.1495323  87.7701283  71.1107731
  85.5515766  87.9463577  70.5683613  51.4558748   1.3543350   5.6737625
  52.1992067   1.0443003   5.1564896  51.1475328   2.1316463   5.2079880
  81.6909695  71.9426775  73.1274462  81.2132645  71.3110161  73.6650658
  82.5166988  72.0770502  73.5925913  42.8281310  91.8700845  17.5663006
  43.1016734  92.6907475  17.9760849  43.6088183  91.3168986  17.5935566
 104.2182732  85.6958039  28.7936794 103.7587500  85.2889831  28.0591213
 103.8177157  85.3074248  29.5714581  57.4227667  86.8157768  85.0437164
  57.1363115  87.4046516  85.7418537  57.6368141  87.3963737  84.3134212
  14.6665242   1.7263014  35.8144486  13.7448028   1.9259912  35.9781181
  15.1410297   2.2206718  36.4827931  65.2634958  33.0500395  20.6448853
  65.8684018  32.3082716  20.6545078  65.0554231  33.2013876  21.5668595
 101.1745215  87.9208500   4.2250454 101.1047316  88.6247952   3.5801994
 102.1130038  87.7417715   4.2835056 106.0998418  14.0363104  15.2758419
 105.5354978  13.2653696  15.3341210 105.5190589  14.7362883  14.9775898
  57.2418359  16.8683655  26.4428818  56.6182760  16.3137133  26.9116795
  56.6969064  17.5137693  25.9926140 112.4773766   8.8986189  17.9298412
 112.5572969   8.0619080  17.4718392 111.5417744   8.9825756  18.1137669
  32.4343398  86.8311412  11.2763035  31.6083052  86.6657264  10.8218491
  32.8493025  85.9708912  11.3396465  81.1067630  94.8243172  40.2065384
  81.0673667  94.5169098  39.3009007  81.8001605  95.4841836  40.2055466
  95.5445576  59.3388176  91.8171692  95.4293919  59.1702461  92.7523422
  96.3480186  59.8563910  91.7642498  75.4891825  61.7571831  88.0883694
  74.6212339  61.3723803  87.9666138  75.5234814  61.9813728  89.0183163
  53.1195024  20.8018810  20.5745041  53.7735322  20.8149321  21.2732899
  52.5047448  20.1158411  20.8346092  79.4650698  24.4901586  88.6568356
  78.8787365  23.8564587  88.2434750  79.9074602  24.9200535  87.9249096
  37.9549602   1.8663437   0.7660496  37.7012304   1.6443140   1.6619122
  38.9111903   1.9021971   0.7898533  26.3803008  91.3747342  25.0189793
  25.8986762  90.6613476  25.4377281  26.5957644  91.0397370  24.1485893
  27.9315665  88.0968554   8.5576451  27.6458743  88.6704977   7.8466332
  28.8874533  88.1154521   8.5110104   4.8633387  98.1119521   1.1160481
   5.8106425  98.1728776   1.2390911   4.5077231  98.8350947   1.6326153
 112.5589372  68.8820620  11.6158688 113.3753491  69.3647082  11.7453015
 112.5813437  68.6156375  10.6967652  69.0322113  32.9232311  83.1884480
  69.1050816  32.6985407  82.2608566  69.2093945  32.1026325  83.6483002
  65.1628780  22.3899269  89.5763779  65.0052834  21.4585209  89.4218540
  66.0159254  22.4198699  90.0095558  34.3899825  96.9325287  26.7600262
  34.8117258  97.3192294  25.9926712  34.6017935  97.5307066  27.4766552
  13.1288149 100.9892542   2.1306145  12.5967123 101.4385874   1.4739525
  12.6867583 100.1508219   2.2642338  86.5443993  81.2025166  76.5015602
  86.7564869  81.9784832  77.0203304  85.8221054  81.4809036  75.9385109
 110.2850246  34.0391207  87.7631760 111.0976601  33.5434723  87.6622486
 109.7380447  33.4904075  88.3252811  37.9176286   9.9045116  27.2518742
  36.9782403  10.0035221  27.4067223  38.3219484  10.1048405  28.0960476
  40.4062131   4.8128731  12.6975453  39.9160150   4.4140179  11.9786274
  41.2059310   5.1429779  12.2880089  86.1815166  84.0127277  51.3553572
  87.0018387  84.1848660  50.8931160  85.8864307  84.8747730  51.6486692
 102.0242786  28.2033253  77.3299694 101.5517235  28.9279342  76.9202518
 102.8145504  28.1023192  76.7994118   1.5655138 106.8596346  28.5041344
   2.4635508 107.1908076  28.5133946   1.6355517 105.9883435  28.1140434
 101.2631130  43.6610985  70.9170485 101.3524342  42.8825808  71.4667416
 100.5938339  43.4252214  70.2746630  64.3766740  12.5570185  32.5471604
  64.7164300  13.4238321  32.7694904  64.6897081  12.3982412  31.6566384
   1.1920787  21.9461823  85.4378891   0.3420211  21.6018534  85.1638794
   1.0803176  22.8967690  85.4267406  37.0238090  44.9644995  80.2465820
  37.6944923  45.2150106  79.6112394  36.6641307  45.7959843  80.5556011
  50.8874130  77.5559282  64.2992067  51.4969683  77.0194721  64.8060560
  50.9318924  78.4202194  64.7081661 112.1884228  11.3582594  27.1395313
 111.3095929  11.0856230  27.4032700 112.6275875  10.5444557  26.8923771
 106.5764571  66.3859994   6.4301884 106.5753699  65.9245427   7.2688114
 106.4438439  67.3050935   6.6623699  35.0791933 101.7934783  39.7630989
  34.7184565 101.6794474  38.8838398  34.4546320 101.3505442  40.3375351
  55.1593641  27.8372843   2.2140038  55.4535535  27.8587229   3.1246197
  54.5462564  27.1031076   2.1776020  77.6332760  53.1949902  88.2242870
  78.1855631  53.8082218  87.7393627  77.7163506  52.3692083  87.7474022
  85.5827236  43.9299250  90.3176498  84.7877312  43.3984232  90.3591347
  85.3325176  44.6951056  89.7998428  37.3858263  94.2399390  23.6248219
  37.4603465  94.3006022  24.5771897  38.1804278  93.7817652  23.3510983
  45.2595857  26.0756714  14.0904247  45.6727651  26.6850740  13.4787476
  45.2000383  25.2527506  13.6051476  88.6353874  53.6417103  56.4900589
  89.3959141  53.1531239  56.1752319  87.8865147  53.2106018  56.0782814
  66.4156965   8.4885818  41.6869175  66.8344644   7.8011925  42.2049534
  65.5849412   8.1046278  41.4064514  21.0594657  45.1520044   2.1865666
  20.4415897  45.5193216   1.5544712  20.6453040  44.3416292   2.4831974
  45.8785152   4.7177801  86.1001778  46.1439371   4.0941864  86.7761326
  46.6048384   5.3391230  86.0490227  44.1660360  14.5161611  42.7384388
  44.6594289  13.8491756  42.2610199  43.2609323  14.2054111  42.7174008
  99.2301703  88.8133080   9.5655358  99.8170615  89.3483741   9.0312206
  98.8670922  88.1725342   8.9541351  82.5470638  34.6644092  88.0889130
  82.3114491  34.8723507  87.1847725  81.7341042  34.7797441  88.5808659
  49.8526289  65.8081598  17.2525131  49.4188406  66.6379435  17.4513065
  50.6450942  66.0597677  16.7782509  42.8663495  17.0809967  22.9671108
  43.2068303  17.9748136  22.9297745  43.5301927  16.5919287  23.4532749
 105.1588917  29.9581861  79.7887039 105.2662659  30.9093380  79.7848368
 105.8432102  29.6422958  80.3787422  90.5662727  77.8369761  60.0236893
  90.1555538  77.3115778  59.3370342  89.8726463  77.9716253  60.6694317
  19.5084240  51.6073608  91.4141273  18.8742210  52.0359182  90.8393669
  19.8122551  52.3034048  91.9967461 110.5183650  92.6386960   1.1703789
 111.2334777  92.7592022   1.7951405 110.8553124  92.0013864   0.5406677
   8.4526590  41.7511827  38.9963829   9.1245988  41.3136751  38.4735787
   7.9261640  41.0371286  39.3557751 101.4076900  36.6027927  92.3073387
 101.8025494  36.9553471  91.5098286 100.5492878  37.0235419  92.3558044
  65.7556203  27.6692373  27.0673096  66.0189298  28.5832197  27.1747410
  64.9290613  27.7130205  26.5865624  13.7345889  94.8063881  24.1892445
  14.3393328  94.4528611  23.5369217  14.0596487  95.6897194  24.3633186
  99.3519974  51.3068295  91.6080666  99.0716362  52.0138788  91.0269356
 100.2149773  51.5803385  91.9190216  90.0549222  90.1930602   4.9267494
  90.4324389  89.5353754   4.3426621  90.6608058  90.2322252   5.6667530
  29.6014884   4.2024977  24.0117752  30.4038337   4.6406919  24.2954170
  29.1200593   4.8738081  23.5282433   3.2766297 104.9902089  20.1490414
   3.2664254 104.0434582  20.2897274   3.9925530 105.1326354  19.5298493
  56.8899298  35.5021167  82.5567722  56.5526676  34.6194267  82.7095795
  56.3553190  36.0633397  83.1184292  81.0702324  26.0265970  87.2438526
  81.5402985  26.4460611  87.9644966  80.7394123  26.7546153  86.7177486
  78.8352394  27.3836517  78.0365467  78.2746172  27.0444155  77.3387957
  78.2447338  27.8922462  78.5923004  50.7228613  42.9273272  90.9079647
  50.0903845  42.2155666  91.0059452  51.5631485  42.5354958  91.1459064
  15.3634837  79.2007549   1.2173474  14.6771433  79.2612488   1.8818104
  15.1479533  79.8881872   0.5871021   7.0684864  51.3026810  82.1324635
   7.9431392  51.6877317  82.1868420   7.2210552  50.4003429  81.8518639
  22.8447965  18.4659655   2.8146755  22.8413871  19.0892441   3.5411369
  23.6227611  18.6950285   2.3062241  84.5101261  94.9217415  88.5202408
  84.3812275  93.9942169  88.7185383  83.7598896  95.1564026  87.9740620
  77.9786828   7.5132305  11.6280853  78.4474328   6.7176897  11.3758576
  77.2168687   7.5361473  11.0489952  70.1848793  45.9470940  85.4856873
  70.1925373  46.4585352  84.6766186  70.5026150  45.0824690  85.2255058
  94.9756480  93.0095513  18.9810478  94.6695329  93.3862717  18.1560528
  95.5208732  92.2680743  18.7180435  49.4128230  94.3523963  29.8682606
  50.3585150  94.2333968  29.7802937  49.0329268  93.6389763  29.3554794
 101.1555958  58.8856602  71.3931227 101.1469650  58.0640888  71.8842268
 101.1348152  59.5667648  72.0653582   1.4985707  99.5265038  24.1139710
   1.7919161  99.1109974  24.9248612   2.2636988  99.4974215  23.5395538
  96.4254856  29.3780708  91.0641289  96.8335056  30.2438784  91.0756397
  96.8187904  28.9379501  90.3105831  81.2591267  57.3835802  80.7608891
  81.8283749  57.3226070  79.9937725  81.5990925  56.7230654  81.3645267
  19.3650534  49.5052989  18.1180298  19.7477248  49.3413339  17.2560990
  19.7648718  50.3261615  18.4053623   6.8292239 103.4292729  21.0438072
   5.9673026 103.2050545  21.3945782   7.3349669 103.7040932  21.8086159
 107.3961830  55.3434563  81.5859318 108.1123638  54.7583485  81.3390255
 107.6675129  55.7127762  82.4263000  57.0558694   3.9384157   5.2374756
  56.8901304   4.8278219   4.9248612  56.6797880   3.3733494   4.5625698
 106.9498730  72.0794439  84.9451351 106.7573643  72.8919315  84.4771290
 107.6613426  71.6783285  84.4459915  69.6602964  42.8614330  86.5274620
  69.0115213  42.9203558  87.2287846  70.5025005  42.9611492  86.9712830
  88.0472851  88.6429501  91.9041157  88.4677982  87.9486656  91.3967896
  88.7498188  89.0032101  92.4453068  28.0830862 105.1725562  14.4215214
  28.8990881 104.9367840  14.8628628  27.6478579 105.7724793  15.0272381
  51.5249780  36.6779310  17.8940689  51.6921857  37.3945505  18.5062134
  51.1221269  35.9944994  18.4296620   1.3607504  88.1833489  12.6560127
   0.7866671  88.9315755  12.4922478   0.8435061  87.6021154  13.2135594
  48.9312700   8.8926298   5.2046311  49.5894006   9.5088179   5.5261814
  48.8369230   8.2529957   5.9104645  11.0035373  69.1865635  91.2262630
  10.9364082  68.8364172  92.1145821  11.6856147  69.8556852  91.2834644
  24.4715693  66.2139304  15.7293427  24.0481665  66.9253702  15.2489102
  25.0115015  66.6556306  16.3847840  -0.1430176  66.8495560  53.8598871
  -0.1981781  66.3463640  54.6722794   0.7648136  66.7454815  53.5748529
  61.4896539  25.7653601  20.9853661  62.3485902  25.7118399  20.5663216
  60.8667234  25.6092102  20.2755749 107.9556274  83.9391518  48.2100391
 107.8403759  84.1282463  47.2788095 108.5517406  83.1905079  48.2304335
 104.1083908  75.9881353  83.6023045 104.9930763  75.6286049  83.5366631
 103.7503624  75.9061861  82.7183723  57.8746751  30.3788549   0.3366100
  57.2946885  30.8265192   0.9525978  58.5911516  30.9964640   0.1901829
  34.8691800  24.5319826  10.3526413  35.4210285  25.1882917  10.7780277
  35.2493337  24.4284374   9.4802868  54.3937066  47.9598123  10.7581150
  54.2326692  48.4840280  11.5426457  54.3966821  47.0551855  11.0709583
   8.7841895  97.9749329  48.0516159   9.4315245  97.7866347  48.7311184
   8.4956171  97.1134074  47.7503979  80.8185101  13.2268834  82.3570919
  80.4171371  14.0619075  82.5976372  80.1920319  12.8244817  81.7555618
  75.3817987  68.0704308  67.2160292  76.2421656  67.7270889  66.9749546
  75.5422401  68.5846186  68.0072975  18.6476042  79.9338038   6.4951050
  18.5417941  80.1803024   5.5762589  18.2897093  80.6744845   6.9845307
  75.6647635  79.7516441  60.6285524  75.0999403  79.7704458  59.8559904
  75.3476000  80.4709244  61.1746931  91.4736652  87.9947186  90.9052753
  92.2735310  88.2028389  90.4224396  91.1279106  88.8458157  91.1741734
  81.8327999  67.7838039  83.6479473  80.9767532  68.2060146  83.7196827
  81.7106628  67.1061516  82.9830360  89.6281147  69.6744156  58.1000328
  89.7436905  69.1994095  58.9229822  90.5168629  69.9057198  57.8301382
  83.5889676  16.0993750  10.9654629  82.7983716  15.7906134  11.4080250
  83.2644895  16.6333181  10.2403080  99.4459248  27.5200248  91.5766525
  99.1294479  27.6075792  92.4757671  99.6928024  28.4090853  91.3219929
 108.4525108  82.6495647  72.0998335 108.9930058  83.1350899  71.4766502
 109.0111065  81.9286728  72.3905468  78.2085660  35.4897386  19.5753014
  78.2062486  35.9353048  18.7281334  78.2598832  36.1972982  20.2179253
  51.0024598  21.6173727  17.9459679  50.4310182  20.8602650  18.0742943
  51.8889001  21.2600309  17.9985535  64.2139581   3.8594562  29.9542153
  64.8374799   3.3100922  29.4791710  64.7601846   4.4219906  30.5032360
  41.1997560   3.1004936   7.4783718  40.3617624   3.1952984   7.0255959
  41.0277894   2.4603731   8.1689560  62.9494858  63.0733919  83.3872128
  62.7062750  63.1505585  82.4646473  62.3721218  63.6885548  83.8393784
  91.0875034  98.4127426  71.4639139  91.2465954  97.4758339  71.3493538
  90.1371193  98.5043621  71.3960552 100.2325344  55.3475571  89.9982166
 100.2172279  55.8199310  89.1658401 100.5893135  55.9773922  90.6245136
 106.1242008  59.6823311  86.0181427 105.7384682  59.8056316  86.8854618
 106.8395138  59.0623140  86.1600876  49.0800527   1.2112076  16.3017475
  48.9743951   1.1238605  15.3544151  48.2272390   0.9670574  16.6613876
   2.1295741  69.1782231  40.3577912   1.3055041  68.9126475  40.7659638
   1.9193127  69.9931772  39.9018585  74.5516446  10.9567387  28.4989464
  75.2465204  10.6560833  27.9132855  73.9325288  10.2273924  28.5302460
  27.2742178  89.9259694   5.8836853  27.9489710  90.5263598   5.5666935
  26.4480784  90.3573401   5.6654179  93.3956432  80.0239849  74.5550251
  93.9110565  79.3028736  74.9164009  94.0079689  80.4972744  73.9917374
  77.1624374  73.2635880  65.7131290  76.8911695  74.0897226  66.1133194
  77.3052073  72.6742029  66.4537144  61.4007428  11.4275581  18.4029972
  60.8117250  11.1049778  17.7209103  61.8224099  12.1932203  18.0128777
  76.4496377  28.5410196  32.0010006  76.3066343  27.7034075  31.5603363
  77.1404603  28.9647467  31.4916336  82.2088432  55.2745724  91.3052177
  82.1965313  55.0257635  92.2294331  83.0013657  55.8028269  91.2099171
  79.2420820   2.2624571  14.3384468  78.3891538   2.0420486  14.7128212
  79.0618852   2.4281914  13.4130871  63.7196306  25.7607490  14.5317852
  64.3045762  25.8694393  13.7819492  63.4026197  26.6444570  14.7183239
   7.5443891  26.0634167  46.8343651   8.1222299  26.6537458  47.3179447
   8.0908492  25.3031284  46.6354191 106.0893059  78.4898138  82.9602337
 105.9968185  78.9901924  82.1494961 106.5547752  77.6951075  82.6994324
  46.3807824   9.8998768   7.9375183  47.0745900  10.4345543   8.3235180
  45.6300977  10.4904491   7.8748238 112.0972491  82.3713739   1.9981873
 112.0538331  83.3223112   2.0985233 111.3314916  82.0454319   2.4710667
  74.3849325  68.5620308  57.8671503  75.3276777  68.6557198  57.7304506
  74.2176151  69.0091515  58.6967993  51.2578154  44.3701649  88.4891987
  50.8915377  44.0165186  89.2997646  51.6248798  43.6087561  88.0400372
  97.9752210   3.4371502  31.2759030  98.0143026   2.8080494  31.9962799
  97.0536283   3.4484369  31.0175049  79.0611792  71.8680143  85.4955673
  79.8912907  72.0703745  85.9270763  78.4007931  72.3149157  86.0250854
  29.6540549  84.4973953  24.7271263  28.8774111  84.9997551  24.4807827
  29.3678763  83.5844333  24.6982491  14.3120912  33.0380136   6.0821068
  14.1510442  32.7284128   6.9734203  15.1134828  32.5886709   5.8135998
  69.6782544   6.0525972  24.9863445  69.9373487   5.1337606  24.9167931
  68.7221387   6.0357077  24.9440586  13.8041308  60.7727588  11.0685551
  13.1269934  60.1521428  11.3379013  13.6370661  61.5535576  11.5964520
  23.8936523  22.8151590   2.7292263  23.9286712  22.4666626   3.6200440
  24.7635845  23.1867487   2.5830280   7.1958735  78.1572182  24.7423851
   7.9059508  78.7548597  24.9765980   7.4308588  77.3298152  25.1624024
  64.5142892  31.2872679  41.5657150  65.2895120  30.8319933  41.2371170
  64.5286134  32.1353800  41.1221707   4.3452884  58.1669521  88.0166149
   3.6147262  58.3168268  87.4165726   4.1803314  58.7618542  88.7481308
  49.2189458  32.0168096   7.1885216  48.8741830  31.5953142   6.4013111
  50.1450685  31.7753488   7.2034371  73.1733659  14.7340614  33.3319389
  72.2335580  14.5944101  33.4481060  73.2645372  15.0014383  32.4173748
  93.1664467  32.6911068  75.5116606  93.8734627  32.0696354  75.6852436
  93.6033058  33.5408330  75.4537821  53.9890054   8.9158089   6.6923248
  53.3208326   8.2463438   6.8392479  53.4963373   9.6906120   6.4217865
  94.6168613  34.5859265  92.4796200  94.8647594  33.8148260  92.9897022
  94.1541195  34.2320561  91.7201042   1.7326976  83.8950634  33.1158209
   2.5226928  84.3931007  32.9058242   1.5617515  84.0940475  34.0363741
 100.5740261  94.4566345  65.3424263 100.1328850  93.9029121  64.6982050
 101.1636353  95.0041580  64.8239517 106.5212154  42.8009510  56.1546373
 107.3087978  43.0683851  56.6283607 106.5582085  41.8444824  56.1491346
  53.7826970  14.4375975  11.4720356  54.1317704  14.6249372  12.3433983
  53.0380586  13.8577825  11.6318905  31.5386537   5.5505640  17.1022522
  30.7550386   5.4583628  17.6441681  32.2669557   5.4467327  17.7146446
 108.6265945  51.4982510  70.3286695 107.8595543  51.7785168  70.8279943
 108.3609962  50.6717730  69.9254084  56.7882589  16.7432863  20.1005566
  56.8400815  17.6891643  19.9632179  55.8499006  16.5568191  20.1315415
  17.2636844  34.3777561  83.9397049  17.5126030  33.9968300  83.0975819
  16.7189743  35.1306939  83.7103462  81.4931011  59.9371052  83.4396267
  80.7815456  59.9793577  84.0784740  81.0739231  60.1304150  82.6010799
  88.3034515  61.9079161  86.0885811  88.7076473  61.6145182  86.9051456
  87.4509525  62.2530603  86.3538170  69.0126228  71.4969969  77.6752138
  69.2892885  72.2578478  77.1645308  68.5266161  71.8670368  78.4121656
 111.3960075  80.6155968  71.0152674 111.1151409  81.4984989  70.7747841
 110.8700466  80.0379562  70.4621649  80.2112865  88.3806610  64.6750975
  80.1297379  88.4619045  63.7248468  79.3083334  88.3476925  64.9910355
  18.0079033  57.7471209  89.1364002  17.7461769  57.7508736  90.0571156
  17.5552608  56.9914579  88.7618065   8.2377913  90.9763010  15.6085884
   7.6940443  90.2316530  15.3515446   8.9122870  91.0254819  14.9311936
  79.7447586  60.6085110  72.9682827  80.0155640  59.9585915  72.3198223
  80.5182266  60.7353306  73.5177279  80.2835134  13.9374763   4.4134915
  81.0275510  13.4492142   4.0610134  80.0506547  13.4721691   5.2169239
  55.8838323  18.8508160  16.2902939  56.7865232  19.1681511  16.3160717
  55.4368451  19.3439800  16.9782173  84.6750787  21.3787777  23.9834225
  85.6294969  21.4451248  24.0136254  84.3658593  22.2280104  24.2987358
  54.6916345   7.2655899  17.3958409  54.7529081   6.3375599  17.6221859
  55.2173475   7.3534233  16.6007626  56.8391660  37.1737654   9.8776257
  56.4351323  37.5691492   9.1051972  56.3315442  37.5142652  10.6142437
  88.8041210  97.6105976  47.1755505  88.5704041  97.0987511  47.9499054
  89.5363712  97.1334934  46.7851353  43.6181405   9.7178776  20.1948940
  43.1854871  10.5457003  19.9857056  43.0029157   9.0454657  19.9023354
  74.0392256  87.8598976  83.0037975  73.2718849  88.0574799  83.5408020
  73.7388515  87.9810905  82.1030617  71.6488698  33.0302221  12.5185311
  72.5809339  33.1808836  12.6759827  71.3341859  33.8510782  12.1398556
 108.5074615  46.3809061  81.2360764 107.7777767  45.8111334  80.9928703
 108.6622047  46.9170666  80.4583740  25.5127718 102.9586966   2.3445809
  25.5548861 102.0024617   2.3361599  24.8560526 103.1636698   3.0101120
  20.6991150  86.3086128  74.0716600  20.2369262  85.5760193  73.6643219
  21.2205936  86.6863537  73.3634186  29.8981383   9.8976898  81.3850307
  30.1155283  10.6752395  81.8992138  30.3165820   9.1757297  81.8539810
 106.3920403  91.7814834  14.6428597 106.8105508  92.3189743  15.3153050
 105.5052615  91.6340454  14.9716770  57.7454999  27.5452406   1.2461769
  56.8041280  27.6316339   1.3964760  58.0380204  28.4335596   1.0423195
  99.4628429  49.8297834  83.4122181 100.3531075  49.6729326  83.0974770
  98.9023113  49.3832493  82.7776718  46.6570857  93.6313803  24.2790138
  46.0138228  94.3389542  24.2366993  46.4606478  93.1778057  25.0987160
  91.5801144  64.9290466  61.1408424  91.9296265  64.9250412  62.0319414
  91.0897732  64.1098452  61.0722065  58.5536722  30.8551866  16.5149128
  57.8199437  30.8935625  15.9013951  58.2193998  30.3511602  17.2568333
  10.3719474  40.7807732  90.5134201   9.8998691  41.4374638  91.0254097
  11.2877895  41.0555506  90.5576611 102.8604412  74.6902275  80.9811401
 101.9405556  74.8983574  80.8176517 102.9268646  73.7502527  80.8130074
  77.6594543  56.7453337  82.8746700  76.8693304  56.6184282  82.3494720
  77.3774433  56.5825748  83.7747860  89.5551300  59.8050213  64.4189835
  90.4294872  59.4863129  64.6429205  89.4736481  60.6331778  64.8919964
  13.8412383  97.1079714   2.5256836  14.2897417  97.7491887   1.9743931
  13.0097773  96.9481213   2.0791924  14.3210937  91.5747261  75.7579374
  14.1890956  91.9986343  76.6059399  14.7186329  90.7305622  75.9714508
  53.1846097  52.4454481  13.3780396  53.5899404  53.2921965  13.1910813
  52.2671274  52.6529962  13.5551846  91.5413761  46.5091515  68.6940765
  90.8884144  46.3023806  69.3627501  92.3258591  46.0356569  68.9708567
  69.9604181  31.3397772   6.5160095  69.6686033  30.6327230   5.9405529
  69.8903611  30.9749586   7.3981869  81.9575787  59.2993307  86.9677925
  81.0056400  59.2258978  86.8994808  82.1611023  58.9690828  87.8428555
  45.4803851  87.7660878  29.4146263  45.5122664  87.1552713  30.1509106
  44.7456171  87.4613078  28.8822186   4.8100808  11.1994774  17.0886433
   4.0539935  10.8301670  16.6323864   4.8119262  10.7636291  17.9408562
  20.9788229 103.9898760  22.4847042  20.2493098 104.1874630  21.8973457
  21.5673163 103.4460003  21.9611561  54.1720441   4.7537167  17.7682507
  53.2740930   4.5595581  18.0369770  54.4480470   3.9793665  17.2779095
  42.7618697  97.3853047  17.0545685  42.6476386  97.4564106  18.0022633
  43.5313895  96.8262179  16.9473564  11.5093950  28.5266001  24.6629440
  11.3068536  28.7982447  23.7677300  11.5692189  27.5724298  24.6159756
  72.5721359  72.8225231  89.0750217  72.3763847  73.1994772  89.9328136
  71.7710066  72.3606014  88.8279247  67.0392799  37.7107549  87.9998493
  66.4531851  37.0977402  88.4436226  67.0367002  37.4257112  87.0860767
 101.9493675  56.4695978  91.8523788 101.5788174  57.3507023  91.9031334
 102.2933865  56.3035250  92.7300453  92.0277786  97.7588272  92.1186352
  91.2050247  97.3326874  91.8784046  92.2749901  97.3515129  92.9488277
  24.4305564  65.5129194  83.7666130  24.4648983  64.8416710  83.0850887
  25.3234245  65.8550549  83.8110065  66.9312623   6.4233143  26.1031258
  66.5513471   7.0487053  25.4860413  66.3687948   6.4773828  26.8757355
  50.3572992   3.7509519  10.5454361  49.4280389   3.6467487  10.3408730
  50.8047155   3.5933334   9.7140515  91.4424038  91.0046959  74.7094727
  90.6322670  91.3218212  74.3103075  91.5164948  90.0976467  74.4128370
  43.9008477  16.2479813  19.0798294  44.7234109  16.1775524  18.5954106
  43.3572820  16.8273384  18.5458576  74.0333131  32.0002729  25.9293472
  74.6308091  32.7348883  25.7894528  73.1975225  32.2998602  25.5716622
  69.6801999  23.3103210   7.9733956  70.1663259  23.9440376   8.5009491
  68.7603620  23.5243637   8.1293118  51.6687346  81.3474178  84.2611599
  51.7503977  81.3647556  85.2147102  50.8785009  81.8559837  84.0791607
  54.7421125   6.8173534   2.9874432  54.2587236   7.5977117   3.2587444
  55.4664758   6.7557747   3.6101257  80.1472664  27.3596048  81.5249062
  80.7610607  27.2571564  80.7975864  80.5754852  27.9807568  82.1140003
  19.6296313  78.8568528  19.7083485  19.0303519  79.4423111  19.2453873
  19.3134787  78.8560827  20.6118309   3.6516859 103.0435641   5.2652180
   3.8526823 102.3959668   5.9408295   2.8576519 103.4772141   5.5777752
  52.2673991  94.4321902   3.8172352  52.2295096  94.9726326   4.6063530
  51.5775111  94.7824652   3.2536804  91.2384796  59.1116476  69.0235233
  92.1769619  58.9511156  68.9249849  91.0752296  59.9016857  68.5083342
  58.3851293  12.5886185  22.0991718  59.3415788  12.6233608  22.0841705
  58.1199411  12.9196722  21.2410843  94.9924469  54.9629784  77.5093889
  95.2570915  54.2205048  76.9663143  94.9662971  55.7046366  76.9048262
  82.8749847  48.8706923  87.3874092  82.3631954  49.6394110  87.1356678
  83.2670879  49.1086388  88.2275677  25.9794906   4.7248775  24.2960083
  26.4245036   4.3674642  23.5275948  25.0701907   4.4419176  24.1993725
 108.3843708  60.9692097  89.7096539 109.2617893  61.1545086  89.3749237
 108.2360458  60.0480604  89.4958401  80.3748798  78.2558107  79.1083813
  80.3704453  79.1192102  78.6951637  80.2906322  78.4377861  80.0443363
  40.1009277  12.6150877  44.1148960  40.6994489  12.9951984  44.7579491
  40.3181604  13.0577928  43.2944977  48.2194617 102.5388415  33.3859455
  49.0377333 102.1140893  33.6433613  48.2447245 103.3910019  33.8211739
  99.9697876  41.9232273  87.6015091  99.5880127  41.0454941  87.6091194
 100.9044838  41.7791510  87.7492237 104.9970341  64.2240000  82.7115726
 104.3732071  64.2219257  83.4375668 105.8136177  63.9058399  83.0965519
 108.5623360  85.9501266  50.1815081 108.0528831  86.7500114  50.0515985
 108.3030796  85.3807259  49.4570780 100.6135464  45.3864574  84.9611282
 100.1369476  44.5569134  84.9304962 101.0526085  45.4419041  84.1123772
  86.6631508  44.7429419  84.4307327  86.1330032  44.1843653  83.8622570
  87.2708702  44.1403198  84.8593998  85.6091881  54.8470163  90.5615139
  86.4724827  54.8998070  90.1514244  85.7890224  54.8652887  91.5014935
  31.0837749  25.1593000  33.5653889  30.7730439  25.2674992  32.6665127
  30.3111175  24.8742706  34.0532314  30.4716972  38.2416994  28.5906517
  30.1444867  38.7419874  29.3382275  29.7107795  37.7518446  28.2787430
  59.2821455  45.2203989  87.2892857  59.2861509  44.4311666  86.7476845
  60.0223494  45.1056767  87.8852463  74.4416192  15.7020599  15.7768356
  73.8368657  15.6081945  16.5128338  74.8170141  16.5758831  15.8852398
  85.8227444  62.6054573  86.9260406  85.8510685  63.0840111  87.7545452
  84.9679661  62.1746635  86.9273853  61.7412141  19.8020727   1.9946396
  60.9870389  20.3910047   1.9700062  62.0974973  19.8318893   1.1067211
  29.6655943 103.8728650  34.7885716  30.1622584 104.1254790  35.5668652
  29.5388987 104.6915896  34.3091213  59.4588712  32.6992495  48.2737648
  60.1900819  32.3317797  47.7772438  58.6787942  32.3287947  47.8608715
  56.2071374   4.7832472   1.7973721  55.6096032   4.1609175   2.2119629
  55.7418969   5.6191904   1.8286621  50.7016805  31.3762838  50.5329334
  51.2845186  31.2572462  49.7830307  50.9136823  32.2486669  50.8649456
  25.9956935  14.1426498  24.7242462  25.3269008  13.5106928  24.4604790
  26.8249181  13.7251694  24.4911587   9.6299411  64.2816830  52.4961996
   9.1822006  65.0909805  52.2496319   9.8415519  63.8614988  51.6625929
  28.9643815  22.3838789  28.2759010  28.2701352  22.3290522  28.9326012
  29.3494323  21.5076715  28.2606995  59.4453576  24.6443445  10.0026905
  59.8187307  24.0707714   9.3334877  60.2052644  25.0201065  10.4471886
  69.9255613  44.1258604  33.7245094  69.5237306  44.9928839  33.7795746
  69.4986394  43.6196691  34.4157040  94.9330095  28.0439169  13.2276356
  95.0296262  28.0317957  14.1798699  95.4208902  28.8182432  12.9472363
  73.3677820  33.6943800   6.3660919  73.7400773  34.5225126   6.6691219
  72.4307206  33.7734491   6.5446961  74.0242910  64.7268724  58.1962490
  74.9194098  64.4877529  57.9557943  74.1101933  65.5806398  58.6204338
  87.4112701  47.4166059  82.5346184  87.3944855  47.1488476  81.6157818
  86.4961529  47.5995588  82.7475262  31.7211250  10.9152824   5.8688080
  31.8856815  11.5683777   5.1886475  32.2883752  10.1799375   5.6370365
  88.4353352  27.6385403  88.1597233  87.5844383  27.4688315  88.5639668
  88.9910984  27.9272413  88.8836098  97.6620770  90.3879070  65.1845694
  98.1816864  90.1924038  65.9643173  97.2092819  91.2040615  65.3969145
 104.6676922  90.1979160  66.9398832 104.1223049  90.1747513  67.7261639
 104.8700333  91.1252403  66.8159771  91.1641839  12.4804098  17.9625523
  90.3248266  12.0336801  18.0727398  91.6369394  11.9476349  17.3231136
  65.5618858  90.8564949  78.0809546  65.0980806  90.4659939  77.3402596
  65.8104229  91.7287540  77.7749825 109.4855309  79.6559620  89.5804119
 110.3897667  79.3694162  89.7088337 109.4810867  80.5697441  89.8653984
  98.8027096  54.1991186  82.0866776  98.3183479  53.4025335  81.8696785
  99.1761398  54.0245390  82.9505634  21.0152343   5.0995380  19.7230255
  21.8482307   4.9994213  20.1838123  20.5413249   4.2882473  19.9059307
  84.1702607  21.9390900   7.7406132  83.4287504  21.4542229   8.1029617
  83.7697938  22.6425058   7.2296631  39.6667960   7.0723993  13.7615883
  39.4568971   6.5998060  14.5670902  39.8253492   6.3847763  13.1148541
  72.0735216  68.1155920  87.5897598  72.5527191  67.2870493  87.5788498
  71.1535406  67.8611565  87.5181580  58.7141660  46.4124472  32.8076660
  58.3265832  45.5372888  32.7969277  59.4578126  46.3524324  32.2079861
  64.9543145  22.6668674   5.2534687  65.6141332  22.1200401   5.6799042
  64.4129613  22.0493776   4.7616589  17.4629500  58.9216824   7.9048359
  16.8386843  58.9673514   8.6290180  17.0292761  59.3806649   7.1854698
  68.4145788  26.3087494   7.6001370  68.3492997  26.0314924   6.6862976
  68.9721635  27.0863802   7.5752461   8.3502628  63.5012245  73.4068871
   8.3973743  64.2432451  72.8040504   7.7288105  63.7785864  74.0800190
  61.9823983  28.2987387  10.4841530  62.6250127  28.9864141  10.3098404
  61.4738229  28.2356626   9.6756947  87.0084623  54.3321306  23.0431759
  87.5228456  55.0213701  22.6229489  86.5114454  53.9345438  22.3282540
  74.8225927  91.8263435  89.1492844  74.4400501  92.6758575  88.9297009
  74.1233110  91.1964607  88.9747047 113.3498859  78.9926338  81.7948532
 113.1049919  78.5861921  82.6261616 113.3395863  78.2727480  81.1640644
  11.0705045  15.1459677   1.8092739  11.3987783  16.0321600   1.6571819
  11.8228820  14.6685678   2.1589291  40.6187824   1.5234930   9.5719635
  40.3496793   0.6540806   9.2754185  39.8960117   1.8227560  10.1235783
  32.1656802  17.8407890   4.0053475  32.1721748  17.1202881   4.6354782
  31.6043475  17.5319511   3.2941734  79.3358517  74.6356964  80.5842209
  79.2886066  75.3211117  81.2507057  79.2501163  75.1032066  79.7533703
  54.7552636  24.8208649   9.2791664  54.5128206  25.6921560   9.5926964
  55.4814008  24.5565206   9.8440373  53.0277303   2.3715431   1.1928665
  53.0492357   1.6366608   1.8058216  53.4082368   2.0224125   0.3869164
  81.1757565  38.6504912  81.2098408  81.7946148  38.9158320  81.8901634
  81.3649178  39.2324615  80.4737949  75.8497524  83.0187035  80.8312225
  75.3358221  83.8201046  80.7318974  76.2671089  82.8946304  79.9787807
 110.6605721  72.7609396  74.5710373 111.5553665  72.4383307  74.4637775
 110.1105309  71.9876385  74.4457722  97.4505520  82.4863434  90.7505894
  96.9157219  82.1260357  90.0432205  96.9317436  83.2122421  91.0972023
   7.4720909  73.4938478  76.4491701   6.9808151  73.2410765  75.6675148
   7.5206234  72.6928616  76.9709921  73.4474230  73.8070917  58.7115335
  72.6777601  74.1912174  59.1314077  73.5225916  74.2718410  57.8781176
  59.1911268  19.7511113  72.3143959  59.5914793  19.0577173  71.7898417
  58.3247709  19.4116473  72.5389576  94.1355089  38.2014639  29.6071732
  94.1631559  39.1421301  29.7821724  93.2027772  37.9865629  29.5996201
  44.9034742  43.3794481  16.2647545  45.8477929  43.4809095  16.3838970
  44.6927598  42.5585730  16.7097294   8.4489204  14.9629998  84.3457222
   8.2803394  14.3906856  85.0942326   9.3725254  15.2002335  84.4288445
  49.5460226  86.3422091  31.0886299  49.2739966  87.1728714  31.4788162
  49.5725920  85.7296474  31.8236839  77.5758886  32.5870776  86.4470291
  77.7805424  33.4867191  86.1920929  76.6282606  32.5860643  86.5820312
  98.1841946  32.8459549  64.9830437  97.5955486  33.5566449  64.7287607
  98.7341309  32.7032328  64.2126942  31.7812827   2.7666790  19.0444576
  31.3481715   2.7115757  18.1926262  32.3664430   2.0094520  19.0650570
  58.2003358  34.9376566  17.6559937  58.9804796  34.3830854  17.6479733
  58.3180097  35.5273516  16.9112408  12.0863535  87.5817306  -0.1740635
  11.7107394  87.2690041   0.6489479  12.9740527  87.2237713  -0.1835049
  67.7027276  24.4612009  22.6420223  68.0927518  23.6724598  23.0188477
  66.8933156  24.1558773  22.2323048  87.9165554  79.3845224  63.2179976
  87.5758076  79.6591806  64.0692854  88.0189896  78.4360027  63.2957172
  23.5490420 105.1937945   5.1122963  23.6966994 105.9240849   4.5113861
  23.6336615 105.5800374   5.9840214 102.9363346  66.3335276  65.5854940
 102.5368309  65.5845499  66.0278320 102.4626064  66.4028025  64.7566319
  86.6995144  53.8525057  87.0332241  87.4242496  54.2198181  87.5392723
  87.0320797  53.0142498  86.7123508  17.2592117 106.4926243  65.3774834
  17.1062709 107.4156761  65.5794716  16.8327858 106.0175228  66.0906982
 105.5623627  64.5894623  88.4377480 105.3533936  65.4371738  88.8301182
 105.6142902  64.7665453  87.4985123  85.1986650  19.4991333  47.5837338
  84.6647981  18.7088758  47.6656544  84.7161153  20.0514681  46.9686711
   3.6125805  71.4642334  46.4639568   3.1720783  70.8103943  45.9211063
   4.5451881  71.2814617  46.3496542  31.1493446  47.7640438  67.5156355
  30.3100635  47.8685904  67.9638624  30.9800579  47.1070385  66.8404198
  87.1945667  60.5791712  89.9746323  86.4550018  59.9936485  89.8120403
  87.4141502  60.4376602  90.8955002  93.0946445  66.8404102  68.4141922
  93.0303860  67.3833561  67.6284981  94.0347576  66.7679119  68.5789967
  15.6959059 101.5245993   1.9229328  14.7888091 101.2411530   2.0372879
  15.9604838 101.1481125   1.0836041 110.5986023  51.6892529  60.4311466
 111.1001205  52.5039005  60.3986549 109.7102165  51.9638014  60.6583500
  60.2522996  43.0485327   0.2927220  60.1674894  43.6221582   1.0542881
  61.1955217  42.9181940   0.1949036  83.7866211  92.3544025  82.8340244
  83.5534382  91.5450954  82.3791695  83.1313801  92.9892349  82.5444126
  33.5361961  25.7009966  35.9724533  34.3495658  25.9047253  36.4341461
  33.1332210  25.0057966  36.4925873  71.1634019  34.2945082   3.3229172
  70.7015088  34.4824869   2.5058853  70.6158880  34.6864778   4.0032303
  16.5593245  98.2811244  11.2570297  17.0126440  99.0917666  11.0255348
  17.2603323  97.6403172  11.3761437  31.4238837  81.2531598  32.3587525
  31.5990546  82.1941597  32.3504173  31.5559676  80.9930069  33.2703983
  91.2677193  64.4860077  82.8089333  92.1971416  64.2886448  82.6929474
  90.9171104  64.5195723  81.9188881  89.1506672  66.1992455  77.1643353
  90.0906754  66.2287998  77.3425055  88.8010979  65.5976534  77.8216934
 107.1195221  95.1657963  82.9437637 107.8994083  94.6109009  82.9340839
 107.2768116  95.7876396  83.6542511 103.6249975   3.7130005  11.3704788
 103.3511785   4.2666466  10.6392204 103.5344175   4.2727072  12.1416771
 100.1605606  78.2958746  53.1849575 100.3081703  79.2396736  53.1242037
 100.2577782  77.9799271  52.2866535  98.7245560  99.8791790  84.7143555
  99.1360664 100.7207394  84.9109840  97.8225327 100.1016712  84.4839382
  71.3269666   4.1752798   4.1553604  70.7622865   3.4443838   4.4066727
  72.2070459   3.8956768   4.4073975   8.1294967  68.7118912  67.4805498
   8.9930202  69.0992498  67.3373461   8.2020809  67.8264761  67.1241713
   1.5263941 103.8308270  24.4789231   0.6727078 103.5283883  24.7887432
   1.4384606 103.8611777  23.5262596  93.5462716   9.0712625  30.2920067
  92.7799657   9.5074207  29.9194729  93.7426999   9.5687706  31.0858166
  90.2298024  10.3488619   5.3318226  89.3696836  10.2556021   4.9222767
  90.0921777  10.9818727   6.0365116  44.0392736  36.4957792  14.6652615
  44.4395974  35.6462557  14.4800961  43.2483724  36.5104277  14.1262924
 112.3627281  95.6420231  65.2607012 111.7708969  95.0501442  64.7963285
 111.9421101  95.7847023  66.1086130  90.2747873  23.7015659  27.6998341
  90.2645925  23.9962942  26.7891895  89.5466951  24.1677792  28.1106293
  93.8836765  65.3676033  59.2334557  93.2543945  65.0557566  59.8838329
  93.8682652  66.3204861  59.3229389  52.5994733  59.1232283   5.6143200
  52.6913503  58.3395559   6.1562264  53.1552461  59.7756655   6.0405457
  51.2445787  32.8643591  11.2795651  50.6925920  33.0549986  10.5211460
  52.0636705  32.5409681  10.9044087  11.5996696  97.8764915  54.1522980
  10.8732750  98.4977722  54.2031622  11.1891510  97.0186329  54.2608595
 101.0749435  84.6944523  80.4847717 100.6260109  85.1939487  81.1668301
 101.9820023  84.9977303  80.5235767  66.1943200  54.1180593   3.1676685
  66.2631086  54.9976046   2.7962982  66.8690446  53.6130316   2.7138722
   0.8621456  69.5687771  89.8049164   0.7651760  68.6382627  90.0073242
   0.6705047  70.0146008  90.6299877  72.1489194   6.9933111  24.7216999
  71.2329534   6.7807466  24.5426762  72.6408342   6.5131361  24.0556061
  78.0054239  20.2383978  24.0439999  78.1600335  19.3132574  23.8531029
  77.4550679  20.5431063  23.3225453  10.7417967 105.7750351  24.9162876
  11.6771700 105.6212122  24.7834789  10.3504660 105.6295140  24.0549385
  58.5837606  26.0089905  21.3762200  57.9760221  26.5639336  20.8874333
  58.4541753  25.1332743  21.0121357 103.7681007  89.7231388  81.0615730
 104.0815639  90.4274273  80.4941559 102.8994751  89.5096588  80.7207584
 103.0505085  85.7524490  72.1240759 102.1522141  85.5955410  72.4150515
 103.3688259  86.4511681  72.6956558  96.3211250  93.3023643  62.1407604
  96.0470486  92.4163055  61.9040823  95.5897617  93.6512280  62.6502895
  92.6053524 102.8553963  75.4361343  92.6849270 103.0781174  74.5086145
  92.5229073 101.9018173  75.4472637  98.4866905  55.2330494  63.9927387
  97.7145863  55.7823992  63.8574839  98.1324482  54.3777561  64.2360973
   3.4147121  62.1173000  92.7158546   2.9417659  62.2634935  91.8966007
   4.3314792  62.2829723  92.4960327  97.4266771   9.1692478   5.2266514
  97.2588495   9.9689848   4.7281658  96.5594343   8.7909681   5.3716576
  78.2513192  25.2532751   2.8061402  78.1674817  25.1950581   1.8544018
  77.8459028  26.0905725   3.0315220  61.1917928   8.4458763  23.1434738
  61.6206125   7.9300005  22.4606812  60.2676156   8.2045252  23.0811703
  37.0518210 100.0258429  30.8306706  37.6634028  99.3939526  31.2087166
  36.4260676 100.2031739  31.5329659  25.9803965  62.2748638   3.2981312
  26.3755991  61.4214582   3.4763157  25.6067088  62.5455673   4.1367638
   3.5073616  87.3887539  75.4047918   3.9986850  87.6398277  74.6226168
   3.5755016  88.1475639  75.9842730  91.8577576  51.2421227  89.1113091
  92.3079967  52.0847702  89.0524387  91.6347504  51.1539555  90.0379848
  91.4333680  23.0804474  13.3054554  91.5342572  23.9920027  13.0313694
  91.2958577  23.1286127  14.2515003  72.0123342  30.8620722  32.5930035
  72.4463132  30.8017713  31.7419731  72.0471147  29.9719126  32.9432022
   4.3963386  60.4188681  79.3891001   3.5865070  60.0311279  79.7208691
   4.9316169  60.5602884  80.1699352  24.0563253  36.5640528   0.5108273
  24.4804481  35.7781202   0.1663506  24.7799161  37.1554071   0.7180702
  99.0342903  80.1451015  49.6314478  98.0852795  80.2684593  49.6510935
  99.2755795  80.2886295  48.7163448  95.9742502  34.4766409   2.8652203
  95.8821824  34.1188318   1.9822037  96.9171289  34.5973570   2.9776394
  61.2113097  77.1861441   7.1814263  61.6223242  77.8252609   7.7635204
  61.7367842  77.2176106   6.3819801 104.7140408  94.5180988  76.1968184
 105.3598118  95.0524616  75.7345772 104.3037796  95.1211071  76.8167353
  15.3476097  86.2158203  73.8706064  14.5174934  86.3614273  74.3244028
  15.6407882  87.0920372  73.6205673  78.3829212  89.6173096  72.9548550
  78.3034897  89.3238831  73.8625002  78.3177090  90.5709743  73.0048656
  86.5291837  31.6495401   7.5262177  86.2084440  32.0417387   6.7140972
  85.8041528  31.7494661   8.1431210  72.6062253  42.9325659   7.5096428
  71.8246892  43.4168703   7.2434151  73.0947259  42.8008158   6.6970932
 105.5644703  83.2079983  69.2338467 105.3065586  82.8105736  68.4021235
 105.6162930  82.4728775  69.8446941  39.9958804  19.1041564  86.3638783
  40.4518702  19.9457073  86.3532734  39.1045573  19.3111514  86.0829544
  57.1064046   1.5421421  30.6556046  56.2896684   1.5915281  30.1588738
  57.7055124   2.1257765  30.1901161  45.8491900  13.6664009  83.8274574
  46.7325785  13.9172077  83.5573578  45.2983286  13.8822269  83.0749989
  43.5354426 102.6061423   8.2996475  43.7093546 101.6679556   8.2235062
  42.7252009 102.6591761   8.8065350  11.0182430  74.0301371  80.0608730
  10.8650924  73.6417484  80.9222317  10.1731063  74.4054699  79.8136854
 103.3035278  93.5464096  65.4390955 104.1925621  93.1939220  65.3990316
 103.3027649  94.1066742  66.2151957  85.6830743   4.1590006   9.9962341
  85.6324437   4.4223959   9.0773785  86.5806917   3.8453419  10.1063740
   6.4579298  49.2619414  12.2552502   6.0541727  49.0204565  13.0888569
   7.1142104  48.5823799  12.1012413 100.2033521  10.8618863  23.3887875
 100.4883624  10.3310807  22.6449883 100.8282185  10.6553299  24.0838539
  23.7571382 100.5510676  60.9685993  23.4996223 100.8053649  61.8547440
  23.0785941  99.9365187  60.6890583  20.4245257  21.5906119  64.9389887
  20.3070617  21.8826222  64.0350151  19.5383799  21.5670252  65.3001308
  74.9341011   5.8279127  68.2805490  74.5390320   6.1621439  69.0858078
  74.3151474   6.0700059  67.5916958  13.6159327  37.8384073  33.8435185
  13.2479002  37.5578446  34.6814072  13.6892798  38.7896712  33.9206421
  47.7548837  98.1994069  55.4220867  48.0425786  99.0572942  55.1098490
  48.2805299  97.5742400  54.9229956 103.7725926  28.1906946   2.0649159
 104.4128562  27.5041182   1.8780720 102.9407740  27.8335555   1.7538559
  85.0096274  66.3679869   4.9147427  84.2134238  66.3871701   4.3837845
  85.0396539  67.2286410   5.3326046  55.6964254   8.0590314  65.5858469
  56.2371492   7.2736841  65.5016994  55.5877924   8.1750184  66.5297651
  58.5163879   7.5880486  82.0677567  58.7278509   8.4539539  82.4166393
  58.3997107   7.0392931  82.8433132  91.8862058  77.2246058  10.5334770
  92.1504927  76.7840488   9.7258293  90.9935284  77.5243623  10.3617108
  78.0676508  20.4269576  75.8999443  77.8661919  20.9130383  76.6995478
  78.7202215  20.9643555  75.4509592  11.1867761  94.7020734  79.6698427
  11.0179471  94.7711421  80.6095028  11.7915773  95.4197598  79.4817686
 107.1717522  90.2953137  84.7046089 106.6756675  91.1134971  84.7312069
 107.8981826  90.4749656  84.1077328  42.5441789  94.6756375  88.7175083
  42.7846574  94.2681790  87.8854084  41.8425941  94.1225207  89.0611172
  37.7660894 104.9683653  44.5959282  38.6358737 104.9372648  44.9943495
  37.5886249 104.0640048  44.3373346  52.2102642  25.0248051  73.8271284
  52.5801420  24.4334364  74.4826508  51.2990761  24.7450972  73.7391901
  81.6385318  38.1146688   8.7920391  81.3779641  37.7718146   7.9371750
  82.5546695  37.8536124   8.8856804  66.8291855  25.9515405  68.1596518
  65.9350634  25.6292629  68.0460215  66.7272472  26.8901587  68.3172560
  20.6805562  96.8229771  39.1921949  20.8133935  97.1304012  40.0888968
  20.7664680  95.8713961  39.2500353   9.7219180  78.7548805  64.3696260
   9.9593591  79.5070673  64.9119043   9.9656819  79.0138269  63.4809399
  80.4999733  12.7015126  68.4379244  79.8481321  12.6765811  69.1384363
  80.8624077  13.5864687  68.4793997  53.1729840  89.5035744  66.1238670
  52.3594999  89.1338516  66.4670515  52.9723977  90.4277742  65.9760380
  21.4589404  92.5617326  73.2883310  20.8116149  92.9114891  73.9006042
  21.0253286  91.8096758  72.8850651  18.7969827 103.9922435  78.5116959
  18.8537311 103.0387673  78.4492826  18.0296325 104.1510398  79.0614080
  56.1033678   6.7797172  47.0416641  56.6918850   7.4868000  47.3060656
  56.6639662   6.0050637  46.9983912  38.2937121  12.4509752  87.0638275
  37.4919462  12.6614404  87.5424767  39.0004897  12.7263677  87.6476479
  24.1091489  74.0859318  74.8127127  23.9787673  75.0048090  74.5784092
  25.0313234  73.9178539  74.6188784  37.9934885  65.0652034  38.1740677
  37.3053553  64.7428901  38.7561333  38.2403948  65.9136982  38.5419285
  45.7651711  17.7521574  82.7361584  45.8706522  16.8078673  82.6203060
  45.4121780  18.0580187  81.9006443 111.0903118  95.7804728  67.8720188
 111.3764617  96.5472389  68.3684254 111.7177699  95.0962878  68.1052971
 103.2438565  83.3864505  17.8071415 102.4744130  83.9038165  18.0448830
 103.9594842  84.0214379  17.7770722  76.8909836   2.2051743  78.4575129
  76.6520452   3.0912164  78.7296724  76.8226910   2.2212356  77.5028896
  40.7801199  14.2881310  73.8932896  40.4720354  14.2448604  72.9880619
  40.4624796  13.4786320  74.2933512  85.0368501  56.5997652  17.0838749
  84.8030187  57.5190343  17.2123158  85.3592540  56.5581785  16.1835587
 112.6136658  93.3674980  91.7794800 113.4899828  92.9836810  91.8108559
 112.1017025  92.8464926  92.3980904  72.1194387  79.4290741  61.8065273
  72.3888493  78.6671598  61.2935555  71.4480782  79.0928705  62.4002182
  65.1969719   4.7682929  75.4376554  64.5106554   4.5768321  76.0768318
  64.8785400   5.5391538  74.9679661   5.9714650  75.8075810  79.1708946
   5.2884101  76.3434172  78.7677193   5.8333158  75.9119559  80.1123047
  85.9989071  15.7934093  58.5559750  85.7950783  15.4511738  57.6855993
  85.1446438  15.9706533  58.9497471  10.4696082  78.8042522  82.8011131
   9.8664331  79.4023514  83.2423496  11.0667562  79.3776346  82.3206043
 105.0676918   5.5030876  88.3576584 105.7777596   6.0926825  88.1038761
 105.2099037   4.7163826  87.8312492  50.8517551  46.9249201  78.3517027
  51.2241983  46.3640165  79.0320730  51.1710072  47.8021765  78.5631895
  30.8218837  18.0340374  79.1163635  30.9942436  18.1246078  78.1791782
  29.9544668  18.4198380  79.2387438  61.7956543   8.3351231  87.6942062
  62.3545694   7.7690029  87.1618938  61.4126348   8.9501274  87.0686722
  92.3261309  48.5555021  13.1872284  91.6178752  48.1410707  12.6944267
  92.1408892  49.4928835  13.1303703  88.1036377  36.2576723  70.8933830
  88.9264202  35.8739209  71.1967087  88.2682037  37.2005749  70.8840895
  70.3584099  13.3568263  91.8959236  70.6568384  13.8794518  92.6402569
  69.7036982  13.9060819  91.4647579  96.8518782  55.4366196  17.1445095
  97.3782683  54.7994892  16.6615975  97.4924565  56.0387675  17.5230705
  57.0160950  80.9976585   0.8236515  57.4889112  80.1663454   0.8635914
  57.7025879  81.6645629   0.8377087  13.0593442  89.8261250  64.4315863
  13.4784555  90.6864405  64.4524813  12.1248769  90.0168491  64.3501711
  30.4256581  86.6565896  81.1608505  30.3102683  87.3411978  81.8198109
  29.9892949  85.8901287  81.5328121  36.0692929  98.6070747  84.7277927
  36.6849946  99.2078233  84.3079758  36.0681438  98.8698412  85.6482124
  86.5653945  81.7910488  36.8443215  87.4822141  81.7032750  37.1050369
  86.2153769  82.4678404  37.4236977  10.8510017 101.1475015  79.9470520
  11.1015462 100.5653811  80.6644058  11.4643811 100.9375334  79.2428446
  80.3024483  22.2588849  69.3217945  79.5588160  22.7652359  68.9949083
  80.8447266  22.8995490  69.7819233   2.3466303  39.3294628   3.6022007
   2.0922806  39.5321960   4.5024407   3.2809689  39.5341356   3.5654270
  24.1856291  60.3401918  25.4147732  24.3072512  61.2894113  25.3941738
  23.5775092  60.1610179  24.6976196   9.1497516 105.3873721  78.3220291
   9.3819188 104.6517662  78.8887882   8.3956718 105.7916598  78.7511587
  51.1973619   2.3707160  68.1817150  51.9827414   1.8554574  68.3658886
  51.1638403   3.0167449  68.8872290  64.4205904  14.8013127  80.3785229
  64.6700335  15.6817496  80.0977421  63.7328291  14.9432099  81.0289669
  57.5259447   2.5096080  87.2301579  56.9889927   3.3020139  87.2271729
  57.3570442   2.1090497  88.0829525  71.1183453  15.9376168  82.3935413
  71.3273335  16.1684179  83.2986832  71.4773989  16.6568792  81.8739510
  10.5885985  40.4822404   8.1711399  11.2532999  40.8873196   7.6140797
  10.8933737  39.5830019   8.2924568  61.2990713  16.4021552  73.6278105
  61.4274788  17.2629154  74.0263557  62.1465349  15.9667611  73.7198734
 103.2254432  30.7472730  63.3167315 103.1820641  31.6379166  62.9687309
 103.8787107  30.3086996  62.7716398  36.1567401  90.0504685  51.1066103
  35.9008311  89.2042077  50.7397509  36.3812875  90.5839646  50.3442526
  36.1721873   8.8063282  85.3242779  36.6172385   9.5842135  84.9880505
  35.8742809   8.3435386  84.5411396  84.7549058  78.9786727   8.8365662
  83.8535405  79.2076499   9.0631687  85.2899886  79.4571192   9.4698250
  80.7739926  13.5990818  10.6267941  81.5874291  13.1075604  10.5129635
  80.9816600  14.2550738  11.2922108  24.0031003  78.8938189  73.1691933
  24.1377877  79.6698785  72.6252985  24.3088817  79.1542554  74.0380430
  93.5383845  59.7526307   2.0649159  94.1440726  59.4854064   1.3735687
  93.5188056  60.7080580   2.0100796  50.6192398  19.8879933  66.8145370
  50.6426382  19.8729134  65.8577394  49.8870325  20.4667091  67.0271254
  41.5416336  17.3506165  77.0862293  41.0103416  18.0243850  77.5104904
  40.9056330  16.7127323  76.7624331  99.1300488  63.6412270  15.6194698
  98.6755658  62.8063054  15.7316506  99.9937917  63.4006215  15.2843773
  40.1901722  13.8704574  71.0401249  40.2912331  14.3183756  70.2002478
  40.9116936  13.2419407  71.0647154  99.7683907  31.3634253  51.3018560
  99.0379429  31.9545603  51.4841843  99.4003105  30.7012153  50.7168484
 107.7594567  47.3226745  26.0710442 108.5259820  47.1918286  26.6292107
 107.7081824  46.5254046  25.5438149  86.5307713  62.2290797  12.8819287
  87.0282889  62.7121283  13.5417568  85.6157113  62.4328734  13.0752384
  21.3994598  94.7467876  87.2024250  21.2064075  94.4993032  88.1067085
  21.8219566  95.6027639  87.2733593   0.0611543 101.5624923  52.7885008
   0.0208854 102.4906070  52.5578213   0.3429937 101.1276687  51.9836903
  92.8122520  20.8877373  42.7600765  93.6183453  21.2912345  42.4381542
  93.0580521  20.4978204  43.5989952  19.5144796 106.9353028  85.4473972
  19.9691962 107.2815054  86.2152576  19.5795106 105.9847090  85.5389023
  27.5339532  16.9061530  82.0014095  26.7086744  17.0999646  82.4459171
  27.2887564  16.3187551  81.2865162  78.9127778  99.5960308  79.4758081
  79.3978261 100.4121155  79.5981216  78.2068681  99.6379811  80.1209164
  68.0660772  36.7019868  81.2332916  68.4674120  36.9455576  80.3991318
  67.6080847  37.4925900  81.5186405  19.6571016  14.5879912  73.4834909
  18.7133622  14.4478190  73.4064245  19.9178481  14.0550423  74.2346287
  64.4894552  14.8978710  72.6522303  64.6240997  15.3432465  73.4887362
  64.4708586  13.9675021  72.8765059  98.0821467  33.0565174  12.0019066
  98.0125380  33.1894429  12.9472744  97.3930503  33.6077971  11.6311466
  63.6524152  93.5514451  69.9739408  63.7682485  92.6325548  69.7321701
  64.5369195  93.9169431  69.9568510 100.5474780 106.6998403  83.4693623
 100.8313129 106.6686206  84.3829727 101.1436770 106.1061803  83.0129147
  82.0584630 102.8117020  71.1012125  81.1258840 102.9360030  70.9249210
  82.4995755 103.2210532  70.3568411  88.1727267  80.2716835  22.4812710
  88.9115620  79.6690137  22.5657570  87.5492860  79.9811108  23.1469452
  60.8500862  13.5616362  77.7347326  61.8014765  13.6071587  77.8296804
  60.7114506  13.3468556  76.8123007  88.0545425   0.8764905  80.4601383
  87.6395416   0.7855213  79.6023893  88.7668133   0.2371123  80.4506207
  44.5195723  23.3180380  48.7145853  44.1450167  24.0886188  48.2878017
  45.4307079  23.3011866  48.4217167  63.0623722  28.9281750  84.6698952
  63.1230068  29.7776628  84.2329407  62.8660250  28.3101511  83.9658165
  94.2094898  40.0326395  66.5240097  93.6241627  40.0221205  67.2813129
  94.3201828  39.1100979  66.2940121 107.3081780  53.2881277  17.4078285
 107.3864604  54.1633165  17.0281613 108.1495858  52.8707973  17.2231495
 104.4173289  70.3520126   5.3673088 105.1678038  69.7711320   5.4921925
 104.7615338  71.2284215   5.5395329  76.3465738   1.5739332  83.1488132
  77.1425533   1.7672597  82.6535606  75.7101011   2.2190113  82.8405857
  17.5919103  96.4330829  61.8873739  17.8818511  96.2063408  61.0037708
  17.0804500  97.2341198  61.7734528  22.9984953  52.1217198   1.6909706
  23.6460497  52.0411922   0.9906780  22.9959586  51.2634180   2.1146977
  27.1801379  35.0913234   6.7882359  27.9289916  34.5966752   6.4554131
  26.6253855  35.2313073   6.0208428  98.6510802  81.2513955  11.3946068
  99.3871880  81.8237741  11.6108524  98.0871869  81.7868979  10.8364975
  19.7196674  96.1794532  85.3248882  18.9833783  95.5791164  85.2078152
  20.3820275  95.6600917  85.7807064  97.7464057  50.7271428   7.9307186
  98.0986787  50.3414850   8.7328446  98.4717227  51.2387129   7.5723278
  54.1564989  38.3501554  69.5114279  53.4194279  38.7941241  69.0920830
  54.9321985  38.7552881  69.1236353  30.2197122 102.1297488  28.5266685
  30.4470729 101.3247169  28.0614138  30.7911395 102.1321127  29.2945862
  54.2422247  16.0893118  76.3179827  53.5061073  16.5328002  75.8964539
  54.7095919  15.6644797  75.5987358  70.6576490  44.1536331  82.2984600
  70.6581068  45.1003981  82.1575069  71.1552954  44.0316105  83.1069756
  54.3094014  78.9340759  68.1718874  54.7098588  79.2095233  68.9965010
  54.7284269  78.0975271  67.9698038  35.2554940  96.4837838  57.6777172
  34.7626447  97.2019286  58.0747032  35.3131818  95.8227647  58.3676147
  41.0856818 101.7887635  85.4538631  41.1583661 100.8632345  85.6869888
  40.3794145 102.1206278  86.0081959  49.1564130  82.0471740  88.8767910
  48.7651776  81.1851454  88.7351131  48.4191083  82.6082230  89.1172981
  57.2468615  10.3804338  91.8845844  58.1126690  10.7850122  91.8304634
  57.4223471   9.4700837  92.1227074  69.7955656  34.0179586  89.2527294
  69.1499424  34.6070242  89.6431160  70.5614996  34.5707989  89.0979767
  12.8428601  98.4365029  75.8656931  12.5807332  97.9493046  75.0845671
  13.2800149  97.7876676  76.4171791  54.0290928  16.8195903  89.0355015
  53.5202932  16.5638149  88.2661343  54.8827887  16.4063835  88.9062881
  97.4344350  75.5433304  12.6102650  96.8094207  76.2604768  12.7165234
  98.0100156  75.8303244  11.9013416   4.7318270  73.2957048   8.8412010
   5.6355765  73.3483858   9.1521656   4.5475771  72.3573811   8.7983906
  87.9182721  78.1148536  34.9612724  87.6333142  78.4913094  34.1286194
  87.5810910  77.2191222  34.9470246  42.2122431  45.9376335  83.7299824
  42.9341555  45.7701063  84.3358040  42.3554802  45.3224611  83.0107594
  71.3662386   7.6133823  82.1308804  72.3101473   7.7493757  82.0485878
  71.2834406   6.7611235  82.5586987  79.2868519   3.6860225  91.8519211
  79.2818165   4.6215594  91.6494846  79.0333462   3.2621801  91.0319614
  74.5023323  57.9742680  18.3787071  74.3787647  58.7897213  18.8645088
  74.0932275  58.1374205  17.5288593  15.6828164 100.7177479  76.8677092
  15.3779411 101.1660410  77.6565790  15.1017713  99.9619181  76.7820501
  72.9473592  71.8296666  13.9738857  72.8355218  72.5374050  14.6085655
  73.8648678  71.8894095  13.7077152  49.1531754  26.1974049  88.2317543
  48.3486223  25.7243538  88.0192757  49.7526407  25.5209565  88.5468578
  65.1184034  32.3738146  82.8366661  65.4285383  33.2046676  83.1968403
  64.5565319  32.0108056  83.5213280  94.8589707  66.3757820  16.3436329
  95.4228354  66.3554223  15.5704128  94.8205472  65.4651649  16.6360867
  48.7122536   1.1728159  86.3477898  47.8911686   1.2026729  85.8567047
  48.8454390   2.0723617  86.6466331  90.3338051   0.4649048  60.4247093
  89.9152565   0.2574691  59.5892334  90.2139378  -0.3230445  60.9548044
  69.7535372   4.8085114  74.4088936  69.7094584   5.3822845  73.6439943
  69.1420221   5.1964176  75.0348425  49.6990632  97.6386083  67.8252745
  49.7706937  97.0628930  67.0639229  50.3702497  97.3213107  68.4294748
  34.3071460  95.1750315  64.2551136  35.0726365  95.4431582  63.7468195
  34.1891574  94.2497242  64.0403652  71.7285013   2.5362599  88.8930321
  71.7829895   1.6352129  88.5746288  71.8867493   3.0743569  88.1173706
  35.4587080  61.5058811   6.5609276  35.7129958  60.5969603   6.7204106
  36.0222533  61.7894710   5.8410561  23.4681609  46.2662650   7.6092255
  24.4249823  46.2637581   7.5825607  23.2373717  45.4257805   8.0048954
  91.8035126  18.7481201  84.5112038  91.5934181  19.6562433  84.2934895
  92.6795387  18.7902677  84.8946762  83.1145382  10.8259714  49.8227787
  83.4866619  11.0672963  50.6710243  82.1700668  10.9318912  49.9366999
 106.9695760 100.3594334  26.8598950 106.9086791 100.8679945  26.0512554
 107.8564311  99.9994023  26.8501961  93.6754131   8.1811762  63.6764574
  94.0625000   8.1815249  64.5519018  92.7771473   7.8794962  63.8118696
  95.5269909  24.4418716  79.2214823  95.5915260  23.4933853  79.1099453
  94.7791195  24.5639253  79.8063087  93.6099052  17.5850701  40.5836630
  92.7249813  17.8088701  40.2954674  93.7804127  16.7290092  40.1908302
  89.4850254  25.0705647  43.0687714  89.5492458  26.0227156  43.1430292
  90.3930187  24.7729421  43.0122757  37.2345924 102.7047402  62.2951365
  37.7056169 103.5375059  62.3246622  36.5199899 102.8113682  62.9229879
  50.8077147  64.6164019  12.9206192  50.0691035  64.0270383  12.7678311
  51.0579398  64.4559164  13.8304913   8.7144949  44.2742599  10.6593907
   8.9011767  43.5458506  10.0671112   9.5617392  44.4887103  11.0497868
 103.5812236  86.3676627  13.0874073 103.2038928  87.0392854  12.5192749
 103.1671096  85.5529411  12.8028500  60.7579947  13.5309589  50.0079250
  60.7457829  14.4879842  50.0215864  59.8627663  13.2767820  50.2319527
  65.1023293  31.9097328  78.3885813  65.6610727  31.5580797  77.6954889
  65.6079102  32.6325989  78.7601757  76.4509249  13.5837197  68.8117552
  76.8450785  13.4425473  67.9509735  77.1384716  13.3424640  69.4324923
  29.3556788  29.0280373   6.6540253  28.4132388  29.1506274   6.5398991
  29.6837428  28.8579376   5.7710373  68.3813953  26.5863037  35.8769417
  68.6211014  27.4032402  36.3144159  68.7868786  25.9017277  36.4090800
  26.6928103  25.3616197  17.4568379  25.8299639  25.6214364  17.7796852
  27.3098757  25.8075912  18.0369961  15.4956676  46.5144396  81.6616726
  16.2312652  47.1022081  81.8338871  14.9729015  46.5438509  82.4629688
  97.6680946  66.5242720  74.5699310  98.0764294  67.2759676  74.1404533
  96.8740463  66.8790579  74.9697447  96.8013668   0.5845388  64.4239616
  96.2166595   0.2364834  65.0971699  96.7315674  -0.0385177  63.7006617
  14.7923946  93.2214034  81.1018848  14.8946618  92.2900177  80.9061909
  15.1540612  93.6680890  80.3364372  76.1621523  17.5582361  72.8307390
  75.8272266  17.5398898  73.7272406  76.8790770  18.1919730  72.8558207
  40.0982761  10.1386321  85.7685089  39.7992301   9.4053054  86.3061333
  39.4622612  10.8339262  85.9366989  64.8936462   1.7754243  59.2497110
  64.0747547   1.7815995  59.7453022  65.4829216   1.2270265  59.7676420
  25.3663587  90.1234675  65.6402588  25.3152417  91.0134709  65.9888506
  25.0965976  89.5648563  66.3692427  63.7105036  12.8572190  78.2595539
  63.8110209  13.5338831  78.9290714  63.6962843  12.0353055  78.7499475
  95.0712109  59.3235023  12.6799500  94.7102261  59.6734436  13.4944832
  94.3101741  59.2072774  12.1111405 104.2830420  36.5849502  14.9285233
 104.1652394  36.7919059  14.0014183 104.6977568  37.3648925  15.2972138
  90.6378174   2.6440561  72.7688313  90.6740761   3.5480234  73.0814934
  89.8586941   2.2771709  73.1866693  84.3541527  11.1619806  91.4842701
  84.6209621  12.0742846  91.5971661  84.5723343  10.9594488  90.5745411
  48.4498738 106.3545156  49.8962402  48.3694886 106.4077701  50.8485699
  48.4390496 107.2658301  49.6036291   6.3842108  85.0079997   2.3684418
   6.5613940  85.4954655   1.5639507   5.4322436  85.0399549   2.4631130
  62.4122763   2.2137466  74.9231958  62.7141476   2.1527290  75.8295012
  61.9410133   1.3944203  74.7720432  73.2411432   6.9888461  51.1120796
  73.0050421   7.0723099  52.0359421  74.1703033   6.7590708  51.1221409
  90.2347613  44.0431596   8.4573948  90.9024192  43.3572669   8.4609043
  90.6017972  44.7374899   9.0045941  83.8207245  41.8854141  89.4693851
  83.1387997  41.3106203  89.8169804  84.5300484  41.2925863  89.2210960
  45.1231622  96.9714934  37.5187182  45.8954477  96.5263010  37.8674531
  45.3003453  97.9019666  37.6567674  98.3621360  92.2169597   2.6765835
  98.5509730  93.1455572   2.5413811  98.8392926  91.7711384   1.9767296
  45.1409340  16.3418853  56.0452557  45.8268023  16.9801974  55.8493567
  45.3001833  15.6236613  55.4328632 108.0682660  77.6997955  14.7498333
 108.9283753  77.4932392  15.1155770 107.4704266  77.6396592  15.4949486
   3.1303360  61.1901559   6.9737827   3.8107970  60.6133617   7.3209297
   2.6918557  60.6666441   6.3030350  70.2686453  24.5872164  80.4293346
  69.9464369  23.7073445  80.6248760  71.2150955  24.4801116  80.3344917
 105.5710936  64.6577473  16.5280258 105.8510257  65.0266345  17.3657620
 104.8580600  65.2283890  16.2413418  89.1112804  32.0909095  42.8521681
  88.5470390  32.6355767  42.3033524  88.8581371  32.3110580  43.7486553
 107.3868228  91.1513455  28.9265549 108.1235886  90.5403383  28.9351570
 107.1207381  91.2186129  29.8435700  98.9799786  12.2241533  74.8772526
  99.3729782  11.5630507  75.4470968  99.2001724  13.0586505  75.2912140
 109.4678593  55.0473106   2.4570858 110.1542092  54.6121493   1.9513237
 109.3457843  54.4890921   3.2250225  45.6851721  38.4061170  69.8710966
  45.9991121  38.1827378  70.7473230  44.7959709  38.0533266  69.8380995
  36.8704629  24.8666072  58.4258175  37.5044465  24.8706269  59.1429520
  37.3688245  24.5625472  57.6672554  71.0129308  93.1359888  53.9126253
  71.7060041  92.6053990  54.3055058  70.2179193  92.8729189  54.3762779
  54.0592159  69.0156848   1.1592686  54.8435677  69.5642025   1.1469376
  54.3820024  68.1410284   1.3761055  75.9957647  27.8448915  46.1271429
  75.1289320  27.4392748  46.1448193  76.4075232  27.5657821  46.9449377
   6.5216162  81.1118777   5.4259598   6.1023238  80.3533585   5.8322537
   6.6382410  81.7341907   6.1438477 102.9386235  75.9149225   5.0043690
 103.3474685  75.0503476   5.0441563 102.0141269  75.7350476   4.8335278
  89.2675495  11.1489391  59.8842335  89.5811844  11.9149363  59.4034910
  88.4261513  11.4231253  60.2490759  36.5180159  32.7862453  68.3564949
  37.2851396  32.6005554  67.8149509  36.6342211  32.2379565  69.1324520
   8.0856326  86.7962415   8.4537613   8.1887915  87.6280339   8.9160549
   7.4103167  86.9689615   7.7977574  79.1596460  29.7093272  51.1461258
  79.0127325  30.6447220  51.0058308  79.6755028  29.6660089  51.9512606
  80.6136513   3.2905006  30.6389904  80.4608536   4.1354534  31.0620022
  79.8511362   2.7626371  30.8759761  12.1904041  43.7932253  86.9005871
  12.8423359  44.4891548  86.9837093  11.7845489  43.9459181  86.0472393
  64.2604780   6.6685778  73.7471533  64.1582155   7.5859702  74.0004635
  63.8838673   6.6192937  72.8685379  11.5188121  90.2129591  80.9996605
  11.9327068  90.7813061  80.3501225  10.8942937  90.7805825  81.4513397
 105.9052802  53.8866549  20.0803959 105.9261609  54.7832945  20.4148113
 106.6290475  53.8472784  19.4552242  18.5509061  95.0504494  77.4196577
  18.1994533  95.2336288  78.2909536  17.8301095  95.2528406  76.8232346
  48.8837671   6.4461082  90.6270313  48.7301874   5.5641115  90.2883148
  48.4867620   6.4406914  91.4980030  78.7462951  55.0072784   3.6739170
  77.9784823  55.3316910   4.1445076  78.5031701  55.0654803   2.7499401
  42.3667573 105.4459356  79.6756411  42.6954793 104.9208184  78.9459658
  42.1612453 106.2956326  79.2857552  58.7642049 104.6090264  55.4644299
  58.7715863 104.1084999  54.6485567  59.2658948 105.3994629  55.2650499
  65.5564260  20.8817387  57.1033001  65.0394678  21.4499164  56.5322018
  66.0462475  21.4853311  57.6618576  72.7376080   9.2780626  34.8751354
  73.4622860   9.5913804  35.4163480  73.1617498   8.8482857  34.1324186
  39.4464397  80.2655364  91.7603970  38.9980506  80.2323342  90.9153652
  39.1222858  79.4993544  92.2338104   1.5171244  68.6534054   7.5661766
   2.3561194  68.7191553   7.1101105   1.3622429  67.7123947   7.6482784
  56.2755871  17.5693953  79.8890209  55.4003429  17.7526700  80.2304649
  56.5542793  18.3934462  79.4896412  93.3362770  27.7767611  60.2205420
  93.0856037  27.3057890  61.0152578  94.1055107  28.2857656  60.4763460
  30.6578111  92.7126074  92.1371460  29.9996184  92.8221191  91.4508343
  30.9788798  91.8184257  92.0205975  16.5461733  82.9502184  14.1350186
  15.6511595  82.8506668  13.8105786  16.4849284  83.6357052  14.8002922
  86.7344570  16.8694091  68.5185671  87.2888565  16.4541066  69.1791630
  86.5772629  17.7506936  68.8574791  39.5655394   9.7990179  56.2701178
  39.8579168   9.7973090  57.1815681  40.1539707  10.4131317  55.8309746
  66.8930435  12.4035692  58.9872169  66.5060139  13.1817436  58.5861111
  66.3697863  11.6757083  58.6515760  94.3364906  19.2706203  73.1196594
  93.8419628  18.9502060  73.8739872  94.1600513  18.6320221  72.4287987
  18.0677938  26.9962358  85.7380962  19.0230930  27.0283246  85.6870461
  17.7834427  27.8649378  85.4539680   7.8153517  24.9022133  17.0630467
   7.7750971  24.8910673  16.1067593   6.9654944  25.2490218  17.3345196
  50.2304219 105.6786219  78.2887554  49.4006299 105.3844266  78.6644173
  49.9785375 106.3200633  77.6244211   0.7000114   4.7484341  90.7375145
   1.3585998   4.2274061  91.1968994   0.0110294   4.1220504  90.5157566
  53.9290380  88.4703315  92.6394939  54.0812349  88.9463437  91.8231106
  53.2534646  87.8286493  92.4202251 112.5541973  35.1105499  58.5735464
 113.3984852  35.5580378  58.5173607 112.1790123  35.1960588  57.6971054
 109.0760375 102.8190978  31.0622799 108.4371377 102.6326735  30.3743279
 108.6706353 103.5113795  31.5844261  59.7358370  35.0919414  68.3855486
  59.9721575  34.2960048  67.9092360  60.5032492  35.2856946  68.9238501
 106.1931229  35.6408913   2.0929157 107.0135499  35.2625163   2.4090874
 106.4250184  36.5324814   1.8330586 106.5435886  31.5302110  65.1161909
 106.9801998  30.6882071  65.2451372 107.1933842  32.1803403  65.3832531
  75.0227190  50.6655819   3.9128315  75.4447056  51.4794816   4.1880142
  75.7051993  50.1902528   3.4389984  56.3130010  52.8636462  18.9388382
  57.1907283  52.9658108  18.5708916  56.0839070  53.7365794  19.2578041
 102.2455645  59.4442482  24.2112362 102.5442744  60.3535397  24.2251503
 101.2929917  59.5039327  24.2838490  16.2446310  59.7994102   9.9668038
  16.8410399  60.5251451  10.1507485  15.4173090  60.0609590  10.3709805
  85.5983306  81.9290216   8.2224095  86.0288049  82.3958428   7.5061714
  84.9474860  82.5474269   8.5543930   3.1083919  52.8908110  58.7543678
   3.2801963  53.2254362  57.8741741   2.8492405  51.9795370  58.6178064
  67.5177765   6.7029381  78.4762573  68.0364275   7.1097475  79.1703320
  67.1472120   5.9192646  78.8821793  84.9464989  52.5355244  89.3844891
  85.1930809  53.3922338  89.7330284  85.7649136  52.0393991  89.3672085
  94.8251152  23.0082512  82.9077911  95.4680443  23.6633348  82.6362324
  94.0726948  23.1596112  82.3357868  93.8336945  39.3903823   3.9151299
  93.1158543  38.9859612   4.4023335  94.6077348  39.2356260   4.4565594
  96.9649697  57.5472505   7.0362103  97.3584224  58.3254386   7.4309933
  97.7024318  57.0772086   6.6470539  88.2573415  80.7118661   1.6565621
  87.7497674  81.1545427   2.3367321  87.6809693  80.0149567   1.3429558
  12.7502631  96.9356371  79.0609598  13.7032222  96.8892432  78.9838076
  12.5958537  97.1950132  79.9693155  73.0627537   9.1486061  75.8145905
  73.7443256   9.5177329  75.2529573  72.2428083   9.3690926  75.3726578
  14.0945958 106.0799811  53.0030060  13.8253020 105.2472838  52.6152897
  14.4013356 106.6014758  52.2612619   1.1056473  35.0727780  19.7183430
   1.4047959  34.2240150  20.0444424   1.6577914  35.7110293  20.1700031
  79.1978216  14.0718520  50.8985901  78.3778334  14.2740846  51.3490868
  78.9397001  13.9148939  49.9903107  69.3034983  61.4997478   5.2755463
  68.8659383  61.9318409   4.5420181  68.8219190  60.6808974   5.3930103
  19.5800876  83.3883954  73.3889771  19.3630647  82.5470496  72.9873943
  18.8299941  83.5868168  73.9495277  56.9897699  98.1747079  83.4567833
  56.6333627  98.3821482  82.5929642  57.9370259  98.2651884  83.3530807
  59.4639874  11.2268031  55.3278017  59.5398521  11.8677318  54.6209145
  60.3341341  10.8325374  55.3880358  71.6442585  11.9550037  79.2687607
  71.3531685  12.4103653  78.4787321  72.1823978  12.5975931  79.7310543
  81.7298603  12.8633893  75.1737213  82.4296665  12.7176809  75.8103323
  82.1323204  12.6702631  74.3269873   5.9760859  49.6457754   7.0085728
   5.5289366  49.5081247   7.8436386   5.3604128  49.3220617   6.3510048
  80.6478405   5.5358964  73.6279583  80.4859543   6.1372250  74.3548870
  80.2739239   4.7037429  73.9176702  36.5383005   5.1896721  77.1171570
  37.4688864   5.2694690  76.9076967  36.0986733   5.7382160  76.4674950
 112.5452159 106.0843290  74.8896885 113.3449171 105.7986072  75.3313637
 112.0775530 106.5969838  75.5490160  99.7298528  69.5070596   0.6601727
  99.6998931  70.1440759   1.3739979  99.5542575  68.6660345   1.0821640
  94.6838188   4.9297976  79.0033102  94.9821854   5.5848086  79.6343136
  95.3386784   4.9536288  78.3055878   6.0269450  86.7625332  88.7699127
   6.5302037  87.1827269  89.4673347   6.5347146  86.9274390  87.9754257
  77.5831032  24.7929907  79.7430897  77.0573997  25.0313497  78.9795160
  77.4303102  25.5005360  80.3693962  90.1849174  42.3310423  90.1277447
  90.2419090  41.5491295  90.6769180  90.4512787  42.0328426  89.2580605
  74.5210934  15.9975231  71.1337233  74.9941111  16.3641036  71.8807840
  74.6017838  15.0497603  71.2408113  67.3843575   4.0834936  69.1302824
  68.0564308   3.6755121  69.6762705  66.6160202   4.1399631  69.6983480
  76.2379265  38.5680079  73.7858200  75.9122372  39.3987226  74.1323376
  76.6240788  38.1276202  74.5429039  62.7840947  83.8628150  59.8624992
  63.5425805  84.4384885  59.7648859  63.1331109  83.0755902  60.2804661
  20.8253386  67.7189298   2.8800785  21.1713030  68.2989306   2.2017395
  20.0520327  67.3192914   2.4819481  57.1393060  89.7503687  91.8439865
  57.7861737  89.2622960  92.3534775  57.5498246  90.6007851  91.6874695
  24.3853095  88.9533050   8.9059746  25.2532389  89.1899545   8.5789787
  24.5574095  88.3369596   9.6178257  71.5818071  27.9343128  80.0803280
  71.1219168  28.5982895  80.5940056  70.8906507  27.3469853  79.7744083
  12.0325854  62.3964454   1.4589321  12.6400855  62.5843395   0.7434761
  12.5930216  62.2923304   2.2278893 109.1454078  23.4558685   6.4569294
 108.9248086  22.5605805   6.7138874 108.6180545  23.6173399   5.6745827
  42.2019815  94.0988923  74.1947556  41.6532325  94.5860780  73.5801363
  43.0354070  94.5696617  74.1968203  57.7895927  20.0720215  54.3323612
  58.6317062  20.1723003  54.7762299  57.4467754  19.2384255  54.6545792
  79.3078136  18.6018062  48.3448076  80.1964378  18.6464751  47.9918528
  79.4221640  18.2911360  49.2429399   0.7763150  48.7254499   2.3790085
   0.1788380  49.4721420   2.4202931   1.4282706  48.9762710   1.7245781
  28.2522202  26.4302993  52.6006889  27.7022672  26.1021352  53.3120871
  28.8300228  27.0683050  53.0194044  48.0620432   0.7983281  77.3074484
  47.8856564   0.7557362  76.3676023  47.6936960  -0.0129494  77.6572752
  66.7899513   9.3256497  77.7652740  67.0986414   9.5600456  78.6404848
  66.8687105   8.3723164  77.7308607   8.1918719  78.2874925  18.3313667
   7.4736121  78.1495841  18.9488709   8.9057925  78.6325152  18.8675606
  32.2794393  24.6813328  21.0943043  32.6652101  23.8783771  21.4445507
  31.5788940  24.8985702  21.7093479  73.9836025  13.7350929  52.3229504
  73.2256746  13.8302314  52.8997755  73.6182690  13.4145319  51.4983273
  67.0516109   0.9228122  48.6585999  66.1963177   0.7145569  48.2826614
  66.9017029   1.7189188  49.1684771  38.5883048   5.6460745  21.2720883
  39.2463544   5.1252300  20.8117306  38.1412652   6.1332161  20.5799305
  63.6051798  19.6596754  80.3453064  63.7857533  20.4327989  80.8800030
  63.0058193  19.1356206  80.8766842  78.8073015  38.7637830  84.9196529
  78.0634356  39.3579364  84.8202801  78.5610676  38.1911230  85.6460476
  62.8875065  54.2769766  86.2410355  62.3504877  54.0031004  86.9845676
  62.9412270  55.2292109  86.3222504 111.5465785  55.4929614  19.4560826
 111.7673684  54.5671014  19.5574104 111.8078853  55.8936287  20.2851879
  79.4148016  37.1060395  79.5344830  78.5182238  36.8501925  79.7510815
  79.6832561  37.6732683  80.2572632 108.2401896  80.3083189  17.7127945
 107.6002360  79.5976503  17.7532589 108.5284091  80.3194053  16.8000805
 101.7323399  52.9618740  80.5076981 102.5495625  52.6759291  80.0995064
 101.4762974  52.2302198  81.0692692 110.6064606  48.6478138  75.9566498
 109.8250675  48.2263756  75.5988169 111.1013699  47.9334784  76.3579273
  52.4460553 105.2969552  44.0551186  51.8208074 104.6797333  44.4350338
  53.2254171 104.7700972  43.8783550  85.2786827  45.0420141  59.6857452
  84.7435665  44.3520594  59.2935133  85.7076073  44.6188164  60.4294920
  94.9726391   2.0169801  79.2177439  95.7739735   1.9850838  79.7403002
  94.7799110   2.9506063  79.1315508  60.5924892   3.5859501  68.1539536
  60.1267433   3.0337775  68.7819815  61.2986612   3.9842403  68.6627913
   0.3798726  79.9943454   2.1544373  -0.4744146  79.5947893   2.3180687
   0.1882651  80.9223397   2.0189869  44.5428755  77.6608498  41.4217293
  44.9576476  77.6916869  40.5596077  44.8169424  78.4726079  41.8485367
  27.6441290  97.0966752   9.4157326  28.5469344  97.3037941   9.1743576
  27.5282767  96.1845572   9.1495526  13.8227084  73.8945205  16.4860260
  14.2160418  73.8859398  15.6134140  13.6699679  72.9716392  16.6889774
 110.1729679  20.0088334  91.5870094 110.0196171  20.2487636  90.6731415
 109.6102715  19.2483139  91.7326355  85.3777981  19.5318604  81.2048054
  84.9912548  20.3959823  81.3466072  85.5191803  19.4849527  80.2592754
  82.3231602  33.6234283  81.5414619  83.1098270  33.3357882  82.0047760
  82.0915031  32.8832722  80.9804535 113.1966067  85.6576092   4.5275700
 112.4319554  86.0010440   4.0654099 113.4371615  86.3516147   5.1413548
  93.0629921  43.5115099  63.2449007  92.4393654  43.3373833  62.5399160
  92.5274658  43.5354376  64.0379143  84.7136307   6.7826110  74.6142149
  85.3101540   6.9641340  73.8879633  85.2890396   6.6132009  75.3601694
  54.3513966   9.0362912  80.3284550  54.8633671   8.8068235  81.1039925
  53.8367748   8.2514280  80.1403427  18.0317023  58.1751273  16.7128193
  17.7795985  58.5846384  15.8851826  18.4086993  57.3329241  16.4582741
  76.2548923  18.9784718  80.1103783  76.8024397  19.3192041  80.8177090
  75.8798027  18.1723523  80.4649353 102.5552035  90.2033026   6.0558521
 102.8127433  89.8784597   5.1930725 103.1182147  90.9632022   6.2035191
  25.7459067  96.5202523  80.8160973  25.2128219  97.2145850  80.4288578
  26.0150479  95.9816826  80.0719643  94.5900393 100.1810009  14.5206749
  94.8853589 100.0838740  13.6153710  95.3632403  99.9795754  15.0477516
  94.4277191  28.3455610  85.2001762  94.6433926  28.0957532  84.3016720
  93.5059357  28.6008596  85.1630878   8.1934692   6.9467944  89.0911388
   8.0888988   7.8909284  88.9732170   7.4582340   6.5628582  88.6133862
  34.5371821  52.7060936   7.1481049  34.7860243  52.0698392   7.8185475
  33.8454630  53.2264599   7.5567257   9.4430830  48.9843811   4.7982800
  10.0070860  49.0693550   4.0295803  10.0388720  49.0673627   5.5428421
  64.2663097  19.6132934  84.6834755  63.4855986  19.1146529  84.4424820
  64.0052605  20.1056671  85.4617119  76.7182064  60.7915163  80.6549263
  76.6151190  59.9573660  81.1129570  76.9592571  61.4135170  81.3413906
  28.6898303  21.2633872  62.5129652  29.0788722  20.3948808  62.6157999
  27.9152274  21.1161232  61.9702578  31.3499072  51.3126990  20.7826149
  30.4260638  51.4164072  20.5546009  31.8006613  51.2638829  19.9395954
  70.7261419  22.0290995  78.7163210  71.5360594  22.3046732  78.2869816
  71.0107231  21.4142776  79.3925142  18.9911368  59.2406578   3.8039028
  19.8729708  59.3104614   4.1695797  19.0544321  59.6577610   2.9446900
  78.2317209  30.7944536  76.8017864  78.3851862  31.1624026  77.6720142
  77.3397493  30.4494262  76.8415213  13.3599379  53.1684991  10.7789719
  13.7598326  53.4556601  11.5998566  13.9109232  53.5525334  10.0969422
  64.2857409  37.9062009  62.6878929  64.7002172  37.0438433  62.6600361
  64.9718094  38.5109305  62.4053240  90.3294277   3.0192727  66.7554903
  89.5998383   2.7036756  67.2887135  90.2386284   2.5522584  65.9248972
  86.8607998  11.9777215  87.9651928  87.0973492  12.2898209  88.8386154
  86.6443157  12.7723432  87.4773979  31.1663535  19.3833715  20.3704846
  31.3931945  18.6180765  19.8421871  30.9171108  20.0505430  19.7309601
  74.0306902  26.1608768  74.6994019  73.3729887  25.6544852  75.1760864
  74.1401339  25.6924558  73.8718557  49.7338152  11.5521026  80.9133530
  49.5488691  10.7802820  81.4484406  50.5436754  11.3349617  80.4516125
  37.4864602  19.6120942  85.7488823  37.0421171  18.9398682  86.2655163
  36.8122625  19.9424744  85.1551342  81.8686104  37.5894451  73.6459398
  82.4280357  37.1868110  72.9817343  81.5738392  38.4079361  73.2466745
   3.2948545  14.3718559   2.4798023   2.8228572  14.8862059   3.1347000
   4.1507629  14.7953207   2.4140083 110.3607465  86.0278041   2.5581658
 110.0393678  85.4682572   1.8511593 110.3076745  86.9154937   2.2040188
   7.2319891  75.4319675   1.7403423   7.4851706  75.8049662   0.8959496
   6.3886073  75.8389003   1.9387352  43.4491018   4.0062363   9.1332829
  42.5871614   3.8487322   8.7479698  43.7998155   4.7481186   8.6404907
  12.9374697  67.8317554  17.0513355  13.8111403  68.0660434  17.3644554
  12.4187186  68.6271842  17.1714127  77.5295544  35.1686049  71.3795948
  76.6549349  35.5355358  71.5085602  77.7528858  34.7790265  72.2249269
  77.2340202  12.5330603  88.6669636  77.2964907  13.3095634  89.2231750
  76.6887379  11.9245362  89.1655540  93.6692715  11.8633485  25.1949692
  93.2808781  12.6222241  25.6302762  93.2412624  11.1094308  25.6007457
  82.0283699  31.9690275  92.0504379  81.9958591  31.4062476  91.2768364
  82.3263836  32.8158236  91.7182350  90.3643466  34.4026775  19.8776257
  90.8848191  33.8541002  20.4644787  89.5545770  33.9099367  19.7445309
  97.1559811  11.8908834  80.5577183  96.4389420  12.3975933  80.9389496
  97.4209118  11.2896228  81.2537956  72.8840256  25.4716349  80.7204151
  73.7781620  25.6321335  81.0220623  72.4381256  26.3107610  80.8356380
  65.3717709  14.6639454  58.1709814  64.8549223  15.2685571  58.7034702
  64.9640179  14.6982920  57.3056555  68.1088448  45.2896547  79.4078112
  67.8148079  44.3897581  79.2665482  68.1572390  45.6665230  78.5292530
  63.6952972  21.8653631  59.8991442  64.4903469  21.5578842  60.3345537
  63.0474424  21.1826134  60.0734186  23.8547137  75.0883181  14.9076283
  23.2196906  75.0894077  15.6238568  23.4086611  75.5402477  14.1913712
  75.8097315  31.1872673  47.3297548  76.1068106  31.1157775  48.2368755
  74.8544931  31.1952281  47.3904848  71.0294056  19.2623532  82.5269794
  71.5844679  18.7530112  81.9364738  71.1486578  18.8503361  83.3827019
  11.9102290  75.6099589  17.7137577  12.2211459  76.4767940  17.4526798
  12.4903681  75.0001128  17.2579491  72.7972555  48.0025196  75.6076860
  72.9792166  47.7115011  76.5012360  71.9695234  47.5783348  75.3815174
  28.4039404  87.6845009  12.6365101  28.5914423  87.7541239  13.5725796
  27.5460436  87.2619994  12.5948536  14.3397906  65.4564900   1.7772972
  13.6591437  64.7835500   1.7668545  13.9321425  66.2159486   1.3610279
  49.3732548  36.6203308  84.9700642  49.1253567  35.7421923  85.2592945
  50.2834988  36.5314174  84.6876144   8.5826685  54.2334345   5.1992237
   9.4035056  54.5297903   4.8059952   8.3209994  53.4808197   4.6688187
  25.6571056  51.3165331  73.9306736  26.1647464  51.9538355  74.4330502
  24.7483017  51.4839554  74.1802549 110.9843446  86.3258441  20.3595268
 111.5802766  85.5884941  20.2275669 111.5542699  87.0521433  20.6123268
  84.3035507   7.5807720  87.6853085  83.6718369   8.1964123  87.3136234
  83.8164711   7.1216893  88.3695698  84.6411705  24.2282414  89.5378304
  85.1278305  23.7753582  88.8491535  83.7682819  23.8362956  89.5116425
  11.2027215 103.9002753  92.7907848  10.7242965 104.4789386  92.1970749
  12.1165179 103.9784191  92.5167370  98.8978100  49.7018576  64.2120314
  98.3229446  49.8838091  63.4686279  98.9015961  50.5152702  64.7165871
  66.8930340  29.7148871  84.6461105  66.4385748  30.3616810  85.1858807
  67.6753998  30.1700354  84.3346882   1.6414311  85.5492694   8.1253254
   0.7589915  85.8592017   7.9216683   1.8848326  86.0245616   8.9197361
  17.5482752  98.6780770  27.2403729  18.2554629  98.3109982  26.7099297
  17.6477148  98.2589800  28.0951798 108.9974738 105.4724963   9.0130913
 108.0672837 105.2986844   8.8689816 109.2062426 105.0041277   9.8213494
 112.1509887  99.8121865  17.2448647 111.7921401 100.4321463  16.6099560
 111.5090752  99.7978575  17.9547798  26.4740374  96.3524992   3.7682926
  27.1581366  96.6142256   3.1520664  25.6996634  96.2156565   3.2225525
  83.4903526  39.4294882  75.9387159  83.9555931  38.6008215  76.0531473
  83.1433010  39.6313000  76.8076515  52.5698709 103.2894880  70.9914064
  53.0677175 103.8336492  70.3812599  52.9859780 102.4290404  70.9392738
  75.7523537   3.8706183  53.4554148  76.5181160   4.0335709  54.0061235
  75.7069302   2.9171371  53.3844042  11.7330553  63.9790530  11.2535488
  10.9515002  63.7093313  11.7358792  12.3805621  64.1675515  11.9328415
  90.5579902  94.0797408   2.1899330  90.1340056  93.5618050   2.8741848
  91.2025882  94.6114953   2.6567948  22.5774481  39.7902496   0.4626190
  23.2618144  39.4304426   1.0269081  22.4168780  40.6674547   0.8104145
  16.3447573  74.7382028   3.7761986  15.9952834  75.3075416   3.0906689
  17.2947504  74.7953756   3.6738121  98.7376499  32.0685339  82.7840424
  99.2529678  32.8408718  82.5512981  98.7551117  31.5230680  81.9976616
 107.8921223  30.5039215  83.9858055 106.9891262  30.4945612  84.3031979
 108.3841610  30.9479499  84.6764374  56.5605974  21.3690996  84.4987679
  57.5161123  21.3199711  84.4702339  56.2666416  20.5502295  84.0996742
  27.1908572  33.0896742   3.3281052  26.3314489  33.2211954   3.7285340
  27.8101018  33.1929476   4.0506661 108.1619072  22.7701235  88.2426071
 108.4832954  21.9235253  87.9324245 107.8012753  23.1901288  87.4617386
 112.9392100 103.8287909  33.3444321 112.4365664 104.4347937  33.8888085
 113.8358069 103.8999159  33.6719906  28.4242248 105.0186296  68.5696363
  28.7349319 104.3193825  69.1447401  27.5396728 104.7496084  68.3217907
  14.0285494  64.5920641   5.2993405  14.9748995  64.5214982   5.1741230
  13.6528208  64.1146107   4.5596802  35.9940913  95.1887543  18.3832657
  36.4824011  96.0119803  18.3742058  35.2212908  95.3745301  18.9166557
  42.5862741  10.4390514  60.3780508  43.1298542  10.1170158  61.0971069
  43.0867720  11.1652625  60.0060940  45.5419305  29.2737181   0.9039414
  45.1425031  28.4733278   0.5632603  46.2435201  29.4737894   0.2842819
  60.7560635   5.5176085  90.2660751  59.8585415   5.6903088  90.5504417
  60.8980608   4.5931149  90.4694939  80.6317902  32.0688677  69.2443323
  80.6135273  32.8280020  69.8270988  79.8492432  31.5692520  69.4772291
  10.0832748 106.4722195  82.0442963  10.1016711 107.0493796  81.2808990
   9.1523885 106.3572820  82.2352886  43.1709146 102.9679895  49.0539360
  42.7736138 103.2845659  48.2426643  42.5050592 102.3994488  49.4407606
 104.4262744  79.0488203   0.4599869 103.6536933  79.0467651  -0.1051128
 104.3449927  79.8522718   0.9738838  91.0418892  43.8165426  77.5980473
  91.9865990  43.7520504  77.7380276  90.9514236  44.3830585  76.8318176
  86.5178252  90.3423531   4.6040451  85.9559346  90.0148876   5.3063786
  87.1274806  89.6250136   4.4308960  26.2476304  11.4614899  13.4828579
  27.1261409  11.1270935  13.6635124  26.3692191  12.4038107  13.3667862
  83.3319759  23.8712525  62.9533958  83.7513638  23.9492154  62.0964956
  83.3488655  24.7593784  63.3100128  93.8401508  89.3380737  58.9046812
  93.4191799  89.2595100  59.7607422  94.1783619  90.2333260  58.8853455
 108.6635113  14.6515572  83.1160069 109.3807507  15.0213027  82.6011372
 109.0310097  14.5394528  83.9927101   7.4279215  72.9470487   2.8966248
   7.4994471  73.8685305   2.6476490   6.9074919  72.5499613   2.1982586
  84.3044662  38.6223006  78.9946938  83.6412621  39.2657995  79.2443132
  84.9067974  38.5983753  79.7382307   2.8753997  42.6453066  39.9255371
   2.3308326  42.2121954  40.5828762   2.9644443  43.5440350  40.2426910
   0.9821465  53.3275003   1.0161888   1.8265631  52.8769280   1.0292542
   0.8358052  53.5353019   0.0933468  88.5526276  38.8655233  71.2391376
  88.3543682  39.6832490  70.7827902  88.5683918  39.1059637  72.1655130
  95.3237629  33.7117648  59.9978065  95.5536175  33.9831662  59.1091347
  94.4362926  34.0458441  60.1282740  15.2992488  24.0493774  81.8430233
  14.3801071  23.9714885  81.5874290  15.3525688  24.8935938  82.2910118
  16.6747763  77.9200633  26.9935047  16.0770609  77.2244818  27.2676098
  16.2785437  78.7232597  27.3312962 111.7470456  98.2827837   1.3913166
 112.4738932  98.8571723   1.6321480 111.1467315  98.8474352   0.9044659
  60.6998873  29.4739437  86.7953014  60.4244137  28.5705590  86.6395855
  60.8046532  29.8466611  85.9198952   5.3262427  51.9475603  12.3383534
   5.6187441  51.0397608  12.4194348   6.1340620  52.4516833  12.2408020
  19.9354365  86.1850460   2.0855820  20.6352236  85.5394990   2.1845734
  20.0743105  86.8010385   2.8049576  31.9838812  30.5359085   9.2396938
  31.9303801  31.4459403   9.5315945  32.9063990  30.4093535   9.0179169
  55.0298547  76.5084386  82.8938866  55.0093888  76.8920160  82.0171452
  55.2727746  77.2351051  83.4676266  52.7523136   8.6608309  83.3446598
  52.9278421   7.8966135  82.7956676  52.0509386   8.3781505  83.9315224
  79.6661997   9.8745567  60.8262587  80.3571129   9.2302787  60.6720495
  79.2359734   9.9723476  59.9768019 111.8122817  94.9267943   2.9060089
 112.2822572  95.1374991   3.7128365 112.3752070  95.2596314   2.2070324
  13.3454611  71.6448982  24.9913132  13.2562544  72.5822849  24.8193180
  13.5759356  71.5924449  25.9188664   7.2256663  92.3272545   7.1167004
   6.3402178  92.6714332   7.2340309   7.3877432  92.3987825   6.1760342
  85.3410435  26.9050932  89.2970085  85.8472729  27.0863962  90.0889111
  85.1981354  25.9588027  89.3155098  91.5114117  23.1005168  87.2061825
  91.6459370  24.0425086  87.3100376  92.3095703  22.7045774  87.5560284
  98.9546490  36.0922980  44.4922209  98.9146042  35.1995587  44.8352098
  98.4300137  36.0652161  43.6920595  36.1195468  97.4761701  81.0125256
  35.4497718  96.7968715  80.9338570  35.6564187  98.2273663  81.3832664
  88.8161182  51.0470009  73.0125570  88.4553337  50.9612989  73.8950062
  89.6227360  50.5320263  73.0325270 109.8494054  63.0176277  12.0085156
 109.8888779  63.1801672  12.9509842 110.5914355  62.4386789  11.8340313
   9.9363615  60.4928745   1.5086281  10.6311991  61.1345817   1.3615048
   9.1415408  60.9243305   1.1950218  90.5876255  29.9124455  67.1312094
  89.8778725  30.1916909  67.7095795  90.5457401  30.5179691  66.3910627
  49.0814447  83.0609537  49.4754934  48.1598615  82.8444696  49.3339109
  49.0820073  84.0015698  49.6528959  82.6518631  49.1215038  60.8547401
  82.3317337  49.3484640  61.7278004  82.5583839  48.1701660  60.8051825
  97.6137782  71.8771083  18.2817661  97.9432679  71.2330325  17.6550018
  96.7898322  71.5052564  18.5965264  90.6705047  54.6402185  24.6658718
  89.8070336  54.4253059  25.0186646  90.7515145  55.5858263  24.7903454
  20.3950023  98.7313575  88.2345390  20.7587003  99.5982707  88.4145832
  19.6117877  98.6816717  88.7825775 102.8081942  57.1265037  26.1872112
 102.4317265  57.9738064  25.9493458 102.8266240  56.6337897  25.3667652
  82.9275275  45.7168306   1.4329731  83.8112260  45.9243954   1.1292946
  82.9150344  46.0021426   2.3465740  90.6456661  33.5133028  84.9577141
  90.2010727  34.3254948  84.7149944  90.3262806  32.8677773  84.3272209
  32.6740312  96.5485049  54.6288157  33.3191919  95.9561456  55.0149679
  32.7393912  96.3925446  53.6866713   8.8864996 101.9347889   4.6240341
   8.7642672 101.2583478   3.9579117   8.9208701 101.4534552   5.4506886
  87.1900463  32.0924282  86.6729927  86.7297745  31.2664533  86.8218136
  86.8190002  32.4298573  85.8577061  12.3931648  53.2944727  85.8993912
  11.7558529  53.9837265  86.0864544  12.4026157  53.2297754  84.9444294
  95.8520794  49.2146254  86.0923004  96.5454006  49.4305658  86.7159271
  95.0444317  49.2715120  86.6028786  11.3539556   2.4428303  25.0776493
  11.7106393   3.3119423  24.8942005  11.4197543   1.9761784  24.2445004
  99.1813469  19.1413403  55.3014374  99.1329956  19.4860780  56.1930895
  99.9699497  18.5988200  55.2968359  67.5651360  86.9976139  83.1910801
  67.5856590  86.0908890  82.8850555  66.6784096  87.1154118  83.5317707
  57.2484159  13.3861899  63.6051178  57.0670223  13.2319188  62.6780128
  56.8437386  12.6445162  64.0549994  95.0691700   9.6711111  61.5726185
  94.2577553   9.7899777  61.0789585  94.8243523   9.1022086  62.3024464
   8.6129238  32.1350002  87.0887661   9.2651035  32.5174522  86.5017128
   8.4233333  32.8286314  87.7205563  80.7574368  71.5999980   7.6477444
  80.4854251  70.7512767   7.9969132  80.5415250  72.2243042   8.3404648
  91.9654369  27.4467206  37.7982855  92.0657444  26.5005016  37.9024005
  92.3106384  27.8150892  38.6115336  13.2970049  69.9913807  13.9723408
  12.6031592  70.4481144  14.4479572  14.1083815  70.3723271  14.3081677
  74.7449828  84.0065439  11.0406601  74.7000528  84.9304397  10.7944214
  75.6204987  83.7291009  10.7709801  14.4086936   2.5774652  15.0092041
  14.2390731   2.4023945  15.9348404  15.3495363   2.4340612  14.9068081
  41.7593577  86.7925389  31.5030205  42.6858523  86.6431434  31.6914761
  41.4269926  87.2443635  32.2786629  14.2169669  81.6651328   0.2752983
  14.7452547  81.9212158  -0.4807175  14.2198183  82.4366362   0.8418667
  80.5031490  13.9763677  89.7144508  80.6074142  13.0554998  89.9539566
  81.3347721  14.2126179  89.3035603  84.0499020  10.8236861  52.5159645
  84.1022396  11.7521739  52.7426815  84.5747852  10.3838706  53.1847668
  95.1938915  14.4288170  42.5369978  95.9621239  14.2967606  41.9814730
  95.0859356  13.5969949  42.9981375  46.5011504  45.2562047  14.7728455
  46.3508513  46.2015302  14.7711956  45.6532385  44.8792876  15.0078118
  75.5202436   1.8443948  63.6462498  75.1009464   2.6718569  63.8823223
  76.1015844   2.0691670  62.9197836  80.1359177  50.8038568  65.2551079
  80.1437950  51.6100645  65.7710552  79.2205715  50.6929302  64.9980640
 105.5423976  64.2476149   0.6750405 106.4785958  64.1007037   0.5402004
 105.4311419  64.2267854   1.6255200  84.2290306  22.7804542  71.3687849
  84.6937752  23.3624458  71.9700575  84.7653389  21.9881296  71.3398838
  31.7404798   1.9527895   2.0845043  32.5242713   1.5076239   2.4065792
  31.1170963   1.8940193   2.8084957 109.3941021   3.8145638  75.5330467
 109.0999126   3.7501186  76.4416361 108.6722374   4.2479801  75.0777388
  71.3851738  28.1373096  72.6104832  71.3408899  28.9951515  72.1881342
  72.0306158  27.6508760  72.0976257  30.8569860 100.7425041  74.4375753
  30.9369563 100.9672380  75.3645802  31.4783000 101.3216681  73.9962530
  85.0668526  22.1245885  52.8133869  85.1777172  21.5268636  53.5527563
  85.8172894  22.7161813  52.8690529  80.5309868  47.3643875  68.7984085
  81.2794590  46.7876244  68.6455345  79.8328400  46.7784071  69.0907288
  33.0729392  66.8912334  34.4133389  32.9455378  65.9541268  34.2655766
  33.9755919  67.0561285  34.1408360 100.1087809  60.3393937  36.0686409
  99.7621632  61.1310191  35.6570446  99.7836257  60.3751452  36.9682133
  76.5447474   4.7084224  79.1797781  77.3089886   5.1800627  78.8485336
  75.8605623   5.3749120  79.2423344 105.1335717  77.0759089   2.3178589
 104.9230481  77.6674826   1.5954029 104.7805072  77.5106914   3.0940926
  44.2633820  36.8454194  61.0822916  44.6997547  37.6124239  61.4531231
  43.3737469  37.1439552  60.8934498  79.0965413 103.3383599  70.5904007
  78.9449929 104.2431021  70.3170729  79.0291928 102.8295833  69.7824144
  64.0635061  25.2846026  78.3138561  64.8611450  24.8052502  78.5379601
  64.2417812  25.6554937  77.4496317  60.2058458  19.8942542  77.5185299
  60.5055189  20.4778051  76.8214703  59.6695042  19.2406964  77.0697165
  18.2522299  89.8775537   5.7494557  18.2197859  90.3176339   6.5988743
  17.4115660  90.0835736   5.3407108  71.4567566  17.0757341  88.2830620
  71.2191725  17.8489435  88.7948513  71.3508749  16.3441646  88.8911915
  96.3950825  20.9721184  60.1423073  95.9595966  21.7558193  60.4775620
  96.8298149  20.5941367  60.9067535  81.9589138  23.2985210  89.3513012
  81.8237591  23.2499862  88.4049320  81.1291981  23.6296344  89.6950626
   6.6902449 104.1157277  12.5265515   7.0857623 103.2945473  12.8188717
   7.2215655 104.3839581  11.7768967  61.6188145  37.8994679  63.2655478
  62.4996042  37.9648185  62.8965378  61.0840034  38.4673905  62.7108669
  80.5393028  48.5817051  71.3833523  80.9219360  48.1840515  70.6012440
  80.7292080  49.5156622  71.2945366  82.4565601  37.7366233  90.1311207
  81.5875530  37.5284958  89.7879982  82.3439598  37.7411866  91.0816669
  80.2360535  31.7353606  45.5166531  79.5628023  31.3525367  44.9541521
  80.5651474  30.9986997  46.0316849  84.1140747  35.1679587  84.9589443
  84.1795540  35.1538968  84.0040970  84.8567104  35.7013750  85.2421284
  88.6014175  17.2045612  25.7373810  87.6983070  16.9058943  25.8442926
  88.6136150  18.0765462  26.1320043  62.7637482  28.3455753  73.2580328
  63.4022522  28.9037657  73.7018490  62.2009850  28.9566612  72.7825308
  62.8338718  35.2759266  68.8406754  63.0964375  34.8505545  69.6569729
  63.6589146  35.4733992  68.3973455   2.1448615  48.2440342  18.6959660
   2.4883702  47.3526771  18.6349785   2.0201256  48.5153912  17.7865517
  39.1996717 101.6050935  77.0965099  39.2798614 102.1685681  77.8661203
  40.0541877 101.1805469  77.0204163  53.8209629  18.1769586  61.6454315
  53.9884138  18.1921339  60.7031107  53.8520622  17.2492921  61.8793106
  94.2540073  19.2691398  65.4860830  93.8113499  18.6967945  64.8594189
  93.7677765  19.1521478  66.3022423  44.6304845  95.6938363  63.0314970
  43.7620401  95.7841790  63.4237576  44.7475194  94.7499729  62.9235315
  39.7230914  82.1738989  32.4808609  39.2600729  82.9608948  32.1936714
  40.6306555  82.4571044  32.5920021  72.6334858  11.6196787  87.9388523
  73.4458494  11.4721870  87.4545479  72.7978086  11.2419677  88.8028908
  46.1336374   6.0142660  47.6331949  46.6309023   5.2665478  47.3017216
  46.1379528   6.6435111  46.9119024  83.7529373  25.9913874  64.6920347
  84.5875263  25.8649707  65.1433802  83.2757664  26.6138291  65.2407646
  83.8735008  26.4207768  75.6421232  83.9546204  25.7498384  76.3199806
  83.0105019  26.8075538  75.7900143 112.2450734  68.3832974   4.1459763
 111.3842584  68.3442528   4.5627701 112.7615310  67.7175875   4.6002209
  90.7080365  70.5407925  45.5665600  90.4210854  70.3847713  46.4663040
  90.6791259  71.4924200  45.4675495  64.7601318  12.0604873  73.2701111
  65.5436802  11.5348887  73.1087923  64.1676044  11.8332958  72.5535011
 103.7932110  27.5924993  66.3045120 102.8803349  27.3591900  66.1358261
 103.7810802  28.5433173  66.4141989  85.0910950  36.0681367  82.6402950
  85.2169609  37.0130897  82.5539494  84.7099209  35.7999015  81.8042374
  48.1665471   0.9802515   9.1047775  49.0160135   1.4208204   9.0816223
  48.3603719   0.1036055   9.4366753  95.5244064  91.2814140  71.0769510
  95.6331062  91.5504932  71.9890976  95.0343227  91.9974518  70.6727886
  43.5465765  26.0836077  68.0023003  43.3498669  25.3831768  67.3802567
  43.2550240  26.8826723  67.5632954  15.3482391 103.4184837  91.3915825
  15.8314087 104.2084122  91.6340923  14.9059726 103.1513977  92.1973705
  85.0007629  16.3362825  71.7205095  85.6159401  17.0335996  71.4934826
  84.2682457  16.4570236  71.1162996  36.4955858   6.9663650  30.4941857
  36.6394761   7.7541716  31.0184776  35.6200650   6.6698486  30.7427323
  94.0804672  39.3753648  74.4577456  94.7114086  38.6846209  74.6602678
  93.7552261  39.6605444  75.3116322  95.9443378  16.7694795  69.6948147
  95.0684071  17.0525217  69.9572372  95.8061028  16.2878597  68.8792372
  60.5678847  81.4325769  11.5138924  60.5867197  82.0328028  10.7685101
  60.0038817  81.8647821  12.1552479  59.8606112 101.6187603  13.8910305
  60.3736975 100.9701855  13.4090435  59.7844126 101.2560923  14.7735893
  38.8684608  50.0015497  78.7311363  38.7125827  49.1225195  78.3858252
  38.9128257  49.8818302  79.6797848  99.9090863  78.8506992   0.9785759
  98.9869452  78.6117561   1.0723412 100.3867055  78.0460937   1.1803734
  95.3922176  27.9027557  82.5465298  95.4097939  28.1977344  81.6360855
  96.0123253  27.1741033  82.5742340  24.4803336  64.8775871  35.5565750
  24.4567683  64.0146310  35.9700787  24.7417071  65.4727871  36.2591755
   3.8236763  29.8968291  84.7382736   4.1351940  29.6532226  85.6099606
   3.3804370  29.1126394  84.4145107 100.3487492  86.9735622  54.4986391
 100.1401711  87.0920372  53.5719824  99.6734238  86.3771152  54.8217964
  25.5473617  25.6406814  13.9745247  26.4150384  25.3832609  13.6629116
  25.6384948  26.5667087  14.1990196  26.9929316  78.2888777  13.6492836
  26.4199831  78.8557465  14.1656315  27.5564482  78.8936384  13.1666386
  98.7674904  43.3613110  69.5366001  98.1992245  44.1263962  69.4474220
  98.1719685  42.6450109  69.7568274  96.7048264  23.1420445  67.3677969
  96.9029522  22.2378135  67.6113987  97.5036430  23.4565711  66.9444704
  90.1826572  72.3871803  71.6647530  90.2228165  72.9625845  70.9008598
  89.7256660  72.9027891  72.3292351  25.6918242  61.9197066  35.7561600
  26.3249686  62.6265342  35.6306564  25.8383753  61.3324113  35.0146496
  40.9968283  79.9107344  30.6616318  40.6150343  79.8895795  31.5391361
  40.5332472  80.6196291  30.2157604  32.7544405  92.4223049   6.1712372
  33.3307555  93.1680925   6.3382256  31.8967440  92.7070744   6.4866650
 106.1306814  31.5322763   4.4375813 106.6519979  30.7432062   4.2898094
 105.7373956  31.7224867   3.5858833  11.0948756  70.0772138  23.8519966
  11.4159014  70.2805824  22.9734623  11.6241839  70.6236942  24.4328797
  76.9957209  40.6579494  81.3831520  77.3647547  40.1208639  82.0842838
  76.0527134  40.6510353  81.5472126  78.4613374  10.2122671  10.9441197
  78.3070806   9.3065388  11.2126267  78.8691190  10.1401026  10.0811302
   1.8600181  29.2312796   9.8496926   1.1133865  29.7660047  10.1196015
   2.2680000  29.7296221   9.1415703  99.2932415  36.7166638  56.6063118
  99.6656609  35.9542656  57.0493555  99.1858196  36.4366579  55.6973076
 101.2581348  29.9138689  73.8077545 101.3482571  30.2976131  74.6800232
 100.3144836  29.8040891  73.6907196  38.3567049  91.7684610   7.7601540
  37.9500582  92.5137050   7.3180210  37.6262953  91.3061721   8.1712639
  90.6599617  41.2869310  66.7061806  90.6326008  41.2386560  67.6617718
  90.3259945  42.1601582  66.5008211  33.7638000   3.3951694   4.1093647
  34.6657852   3.2761604   3.8118946  33.7286285   2.9451782   4.9534619
  86.4846992  33.5649037  59.4110441  85.6163025  33.2809949  59.6965599
  86.3193226  34.0924263  58.6296320  93.0412769  45.1653147  88.5596561
  92.3297119  45.2892351  87.9315186  93.7084198  45.7981157  88.2937336
  36.0839655  69.7794850  27.6784432  36.6374495  69.1767008  28.1749737
  35.5117705  69.2104061  27.1636879  17.8517009  23.1845999  82.7273178
  18.2713272  22.3674369  82.4582577  16.9683029  23.1316137  82.3625755
  70.7404661  18.5475624  66.7434072  69.9753809  18.9281797  66.3121319
  70.9626770  17.7856123  66.2083483  80.4424381  34.6112514  70.3654480
  80.7516479  35.3710079  69.8721027  79.5350552  34.8218465  70.5857563
  57.1386719  74.4669294  87.8466606  56.4871788  74.0397453  87.2905159
  57.1058607  75.3883696  87.5895596  29.3171932  36.0017848  76.6141224
  29.0781738  35.4448533  75.8732271  30.1847030  35.6931615  76.8756771
  19.1604568  41.2290239  47.9586744  18.8460018  41.5971994  47.1329641
  18.3796169  40.8550739  48.3669472   3.6334182  37.2293878  86.2570572
   3.5627891  37.8172016  87.0092010   4.4096328  37.5340414  85.7870388
 100.4801464  41.1800241  74.2060947  99.6150112  40.8813143  74.4863701
 100.4462337  41.1486435  73.2500076   6.1068679  42.6137924  87.9442692
   5.3289558  42.2940540  87.4872589   6.3000251  43.4543371  87.5290489
  57.1614408  15.9453976  89.7704029  57.5237608  15.1605892  90.1815319
  56.9589138  15.6748676  88.8748455 102.3646689  75.0208862  12.6890862
 102.1719457  75.2301295  13.6030399 102.1233703  75.8114464  12.2063648
  87.5789928  35.2982473  68.2209158  86.6276169  35.1934266  68.2324457
  87.7824020  35.7304716  69.0503931   4.9331524  80.9643269  88.9233780
   5.5723526  81.5563297  89.3198395   5.1345588  80.9861088  87.9878616
  77.0917797  80.4176903  80.8479500  76.4887238  81.1384678  80.6661892
  77.9612398  80.7898903  80.7005310  69.5566133  15.6411774  10.2416241
  69.3843988  16.0832149  11.0729897  69.3556455  14.7212107  10.4133713
  78.6542940  59.3902302  77.0651197  79.4958830  59.2785311  76.6229868
  78.7669659  58.9522791  77.9087639  70.0874424  28.0986691  75.2212381
  70.2340508  27.1535754  75.2604103  70.3674030  28.3481765  74.3405533
  39.6248915  73.9275320  16.8978893  39.2934229  74.2179687  17.7476036
  40.5389597  73.6967356  17.0635426  99.6170569  83.7444384  14.7061264
  99.4401360  84.5046456  15.2602207 100.1903678  84.0789611  14.0164578
  34.0917780 102.0245726   7.4406731  34.7909739 102.4665720   7.9223263
  34.1901019 102.3322423   6.5396130  75.2797747  64.0570004   6.0320294
  74.7746182  63.3667274   5.6024182  75.7606746  64.4799585   5.3206455
  80.0512981  30.2086878  75.0728369  79.3374729  30.5915880  75.5828142
  79.7321939  30.2169323  74.1704321  35.7305673   0.5575640  15.2066815
  36.1758712  -0.2883308  15.2556336  35.8740619   0.8520872  14.3072903
  95.5180264  21.0819483  63.9198494  95.0069714  20.5552840  64.5344019
  94.8925686  21.7169762  63.5708809 106.3994884  73.4364796  87.1292019
 106.8369293  72.7971220  86.5669727 105.5026817  73.4738779  86.7966938
  19.4276382  41.9226122  87.0200634  19.6266414  41.3792610  86.2575626
  20.2358581  42.4079370  87.1858215  79.9460173  31.3236880  81.9143009
  80.6567669  31.2299132  81.2800503  80.0870991  32.1853876  82.3064709
  15.1621821  89.0684659   8.6534702  14.2343523  88.8473494   8.5730850
  15.6191351  88.3419569   8.2296574  14.1311123  26.7030263  52.1361303
  13.8211681  27.1719885  51.3613749  13.5616161  25.9359670  52.1955633
   3.3713629  69.8062701   1.9565212   3.1844237  70.4897983   1.3130390
   2.9107811  69.0346081   1.6269219  86.0249805  51.8145895  67.9742765
  85.2226830  51.6893768  68.4810925  86.3559341  52.6672697  68.2564831
 102.1471500  56.6848803  75.8180857 102.2586441  56.8897390  76.7464352
 102.1195221  57.5385904  75.3860617  38.3436682 106.7156250   8.2580483
  37.9137804 106.4219840   9.0612900  38.0702498 106.0820515   7.5946819
  19.8229983  89.9840195   2.2723782  19.3175414  90.7749136   2.4600613
  19.6045783  89.7697837   1.3653862  98.9541149  26.2665772  70.3820992
  98.8772297  25.8384514  71.2347603  98.2166576  26.8761086  70.3527737
  99.5170928  69.6327717  17.4511921 100.3317357  70.1176996  17.5832379
  99.2301465  69.8813159  16.5724861  95.6624222  61.4293337  81.2809181
  95.5598831  62.2818708  80.8579540  95.4355335  60.7955313  80.6004429
   0.0617316  55.7763065   7.1001160   1.0044243  55.7337907   7.2606003
  -0.1050470  56.6962616   6.8949330 102.4573898  51.4706135  84.0159988
 102.1499252  51.2241745  84.8883343 102.0941257  50.8013201  83.4360695
  77.1901751  32.5126457  71.2752819  76.3020182  32.5148916  71.6322184
  77.3899412  33.4365034  71.1242533  99.4087791  27.2256684  67.2466469
  99.0804100  28.0890942  66.9958401  99.3669605  27.2220159  68.2029247
  81.5828133  48.9237452  63.3946133  82.1289062  48.3490276  63.9309931
  81.1364746  49.4878912  64.0260792  96.4293385  19.3263614  91.9323921
  97.3839855  19.3671477  91.8757534  96.1249924  19.6529889  91.0856724
  97.6950073  59.1959620  55.9343052  98.0611897  59.5045042  55.1054811
  97.6027393  58.2503271  55.8181238   1.4040615  58.8238144  89.5802021
   0.4836322  58.8822365  89.3240356   1.6160061  57.8936958  89.5015144
  73.3067322  21.7451572  69.4934654  72.4675894  21.4282775  69.1593122
  73.5314512  22.4780488  68.9202309  17.7507831  20.3234839  61.6494274
  16.9259979  20.6293178  61.2720346  18.0890419  19.6968257  61.0098076
 109.9277687  46.8732929  66.1557055 109.8171234  46.0743046  65.6403399
 110.8402443  47.1253252  66.0139084  80.9301758  49.8321819  80.1764584
  81.3416481  49.3049192  80.8612347  80.9343338  49.2669678  79.4039631
  86.6468334  36.5457273  85.9785461  87.2612476  37.0797682  86.4820576
  86.1294842  36.0873342  86.6407108  89.6887589  31.9712043  62.6978493
  88.7913132  32.2958994  62.7712727  90.0467014  32.4267650  61.9358969
  81.7806625  19.9315310  54.8543835  81.0744190  20.5295181  54.6097326
  82.1185398  19.6058738  54.0201044  53.8308146  65.2751930   2.4424946
  53.5119822  64.8517306   1.6454613  53.8839819  64.5675333   3.0848515
  26.5942194  55.0994350  30.0243771  27.5161650  55.1383859  30.2788078
  26.4958289  55.7943143  29.3734562  32.9643964  94.0025485  74.8937845
  33.6050033  93.6349846  75.5026770  33.3938121  94.7786868  74.5340014
 101.4485359  61.4044523  73.3984947 100.6816387  61.5684748  72.8496790
 101.9306755  62.2313118  73.3896399 106.7301131  95.2068360   9.6685517
 105.8700991  95.5757411   9.4672692 107.0541478  94.8823435   8.8283455
  26.4825681  26.5466816   2.2499668  26.5181497  27.3364908   1.7103779
  27.3493961  26.4922316   2.6523029  19.5103743  99.8140080   1.3691818
  19.0699866 100.6630929   1.3325131  20.4025176  99.9939044   1.0725987
 107.0231009  72.5251181  23.5445606 106.9412471  73.3744307  23.9783775
 107.4662162  72.7197166  22.7187168  26.2304118  82.8285773  20.2777397
  25.7885554  82.7997429  21.1263668  25.5745318  83.1843479  19.6781742
   3.6862090  85.7776029  32.4857628   3.8731196  86.3094552  33.2593453
   4.5386412  85.4317315  32.2212326  42.6599744  26.9356996  12.9639828
  43.5228399  26.6986257  13.3038246  42.5009969  26.3104422  12.2568619
  93.7165260  33.5378909  90.0951767  94.5433807  33.6667490  89.6304798
  93.5884380  32.5893044  90.0975895  69.9438334  93.9246178  85.3348160
  69.0464306  93.7920570  85.0293255  70.3839302  93.0943108  85.1527596
  75.0941563  45.0523901  78.1797886  74.9151039  45.4423094  79.0354395
  74.2362833  44.9931097  77.7593470  43.7247709   6.5536577  11.4809143
  43.3412412   5.7391912  11.1556828  44.1734365   6.9268448  10.7221901
  77.8227806  72.8240967  69.9485540  77.9748249  73.7681293  69.9048471
  76.8952179  72.7207899  69.7359848  88.6771965  36.1858726  63.9269972
  89.1191673  37.0315409  63.8512897  88.2002354  36.0902429  63.1026173
  40.1666548 102.9794009   7.0531571  39.6953490 103.1019051   6.2290775
  39.6572878 102.3202832   7.5246918  72.3571253  44.2571020  84.4562054
  72.6713705  45.0237894  83.9769650  72.4584770  44.4929409  85.3783417
  64.0442705  43.3904982  82.5775433  64.2221737  44.3310118  82.5734615
  63.3456755  43.2816744  83.2227993  14.6010210  65.9357996  20.9632218
  14.7652152  65.6735177  20.0574219  14.7960856  66.8727560  20.9803784
  94.3156433  41.6454124  56.0779190  94.9949932  41.0289764  55.8045626
  94.4423199  41.7382193  57.0221472 105.0975848  95.0636752  30.5548393
 105.2282191  94.7788365  29.6503937 105.4169465  95.9658988  30.5703175
 107.5826168  33.5083604  85.6451607 108.4128666  33.0594921  85.8046532
 107.5090027  33.5440779  84.6914577  13.6744358  36.6153145  81.0718822
  13.4594585  36.4005375  80.1641941  13.6972477  37.5720167  81.0926819
  49.5851850  99.8439146  82.2463703  49.1809034  99.2497635  82.8786469
  48.8549565 100.1611704  81.7150021  17.2225143  36.6939712  41.5667677
  18.0847408  36.9408011  41.2322903  17.3667480  35.8553720  42.0051479
  30.9570696  59.4347883   6.8223488  31.4349272  58.6712999   6.4983570
  31.4878943  59.7584696   7.5501358  85.9361649  48.7281847  73.3319378
  86.0037708  48.8941622  74.2722130  85.9140301  47.7740908  73.2581234
  81.7050743  29.6490908  61.7167950  81.6766739  29.9185634  60.7987499
  81.2055302  30.3218675  62.1794558  85.4646015  29.7263336  81.7405128
  85.4255104  29.2272139  80.9246731  85.3993702  30.6407642  81.4652061
 104.8875904  14.5576584  79.9631882 104.4677734  15.4107594  80.0736523
 105.1328850  14.5293784  79.0383863   1.3845971 103.2450516  21.9596970
   0.8020403 102.4869807  22.0065510   1.1535027 103.6741526  21.1358654
  36.4086774   2.4849970   7.1461498  36.1738923   3.3966524   6.9729912
  35.5707696   2.0448811   7.2891056 104.2686176  76.8471146  92.2112083
 103.8888645  75.9695244  92.2543430 105.1810646  76.7012358  91.9614220
 100.5725193  48.4901381  71.9795656 100.8761215  49.2941141  72.4010849
 101.1256504  48.4031391  71.2032175  74.7452402  32.3072481  74.7932816
  73.9108229  32.2525573  75.2590990  74.7300291  31.5667486  74.1869259
  95.7036877  50.0465679  83.2890511  95.8939457  49.7170401  84.1673756
  94.8595333  50.4891920  83.3769512   0.4738189  41.3442373  92.2775936
  -0.4196881  41.6804647  92.3470592   0.9927417  42.0988894  91.9993019
  97.9510212  23.8998127  80.4880905  97.2750378  23.5116577  79.9325562
  98.7762737  23.6140156  80.0962830 108.0562782  10.6468272  80.0779915
 107.3503304  10.7246733  80.7197094 108.1267071  11.5200353  79.6922684
  88.8393688  21.4283228  70.6154299  88.2887554  22.1574521  70.9007788
  88.4679699  21.1626625  69.7741652   6.5970661  40.6505966  81.7450237
   6.4223434  39.9070334  81.1681271   6.4214088  40.3174448  82.6250172
  54.5869592  14.3119556  31.4445030  53.8335183  14.3132002  30.8541214
  54.2264036  14.5677502  32.2935021 106.7751361  92.7493961   6.1053574
 107.0369626  93.4748108   5.5383885 107.4971200  92.1240313   6.0430061
  28.7040999  82.0641835   5.5107987  29.6186354  81.8395884   5.3393280
  28.4741690  81.5551956   6.2881672  75.3980303  36.5133548  72.3603916
  75.7058096  37.3802900  72.6248217  75.1251698  36.0964847  73.1777048
  39.0949156  86.4805586   8.2800114  39.9820521  86.1366065   8.1755268
  38.9435580  86.9971545   7.4885285  86.2634468  60.9601498  77.5094175
  86.7711067  61.2467813  76.7502403  85.8254719  61.7533541  77.8180075
  26.2500193  99.6023448  11.2243855  25.4040148  99.9748929  11.4727890
  26.0383418  98.9542420  10.5525219 106.0778141  17.7532625  32.4536824
 106.4320469  18.0900168  33.2766938 105.1304245  17.7372885  32.5894189
  96.3751411  40.0955009  72.5976896  96.9234657  40.1169157  73.3819771
  95.5230904  39.7904181  72.9094028  83.7261677  34.6957588  73.9956951
  83.9786816  33.8011980  73.7671709  83.4597969  35.0891376  73.1647110
   8.9259483  14.6123397  48.7879324   8.6574318  15.2455640  49.4536352
   9.3378498  15.1423454  48.1055403  59.8135900  39.4386363  77.6844406
  59.8373175  40.3462887  77.3813963  60.6555128  39.0732765  77.4125862
  59.5647287 105.7699797  79.1967440  59.2407560 106.5662230  79.6177816
  58.9766740 105.6357992  78.4534979 107.7869797  50.9448004  87.7830029
 107.6193142  51.1927080  86.8737984 108.1880093  51.7215347  88.1729984
   9.5175506  43.9349127  70.1279497   9.1908313  43.1049490  70.4752922
   8.8940097  44.5888281  70.4438972  89.4652367  14.3217671  89.3902969
  90.2540016  14.4648480  89.9133778  89.7540569  14.4369280  88.4850025
 109.7531414  27.9448390  86.4802837 110.6006241  28.3015656  86.2142944
 109.2999458  27.7646899  85.6566429  66.8662976 101.9787053  77.5876856
  65.9834813 101.8253944  77.9243660  66.7709493 101.9338936  76.6363049
  24.4445040  78.2951052  24.0440476  23.5926154  78.4307153  23.6291611
  24.9591830  77.8267987  23.3867657  88.9911270  70.3964615  70.5018616
  89.4185734  69.5775270  70.2511311  89.6674824  70.8861780  70.9697914
 104.3014812  53.6398697  57.9290485 104.9846935  53.1855011  57.4360991
 104.3068314  54.5311499  57.5800133   6.4772178  54.3717861  64.3062258
   5.5469848  54.1477823  64.3330908   6.5429451  55.0405598  63.6245728
  71.7795563  17.5036895  84.6904945  72.5796366  18.0070484  84.5397091
  71.8434000  17.2199214  85.6024361  98.6384583  51.1714554  61.8266010
  98.9960289  50.7918739  61.0239172  98.6592865  52.1162939  61.6746950
  72.5559282  56.2713528  91.8203259  72.5618458  56.2153196  90.8647919
  73.2305241  56.9183826  92.0264912  98.3828640  43.0209923  91.2806034
  97.9546356  42.8677750  90.4383564  97.8582287  42.5257063  91.9096375
  55.0489286  10.8302719  11.0505116  55.8063176  10.7144291  10.4767811
  54.3888429  11.2449057  10.4949867  77.1098566  26.4261937  76.1149836
  76.1837626  26.2277675  76.2535810  77.2234058  26.3882995  75.1653004
  25.4951145  69.9928617  85.8106518  25.1883175  70.7316780  85.2850533
  24.7213413  69.7064734  86.2959290  81.4087296  65.3959227  54.1374731
  81.2929630  64.5168734  53.7767744  81.0052872  65.3540993  55.0044918
  82.1807957  43.1971788  73.4836769  81.3840771  43.7228537  73.5552835
  82.5569057  43.4460926  72.6393938  25.3677370  74.3699319  34.0113461
  25.9494116  75.0525982  33.6769020  24.4870188  74.6848686  33.8079369
 100.6458473  49.1056204  77.1855545 101.4246845  49.3747711  77.6725960
 100.9840298  48.7950611  76.3456631  72.3886824  35.8886695  81.5554619
  72.5069809  36.1195874  80.6340981  71.6891098  36.4669847  81.8594074
 105.8876514  34.7679901  87.3539162 106.5071678  34.1955686  86.9014168
 106.0764790  35.6422949  87.0130825   5.6705763  89.7322018   4.4334328
   5.1247504  88.9517553   4.5293820   5.0839617  90.3904111   4.0607750
  26.5029719  86.0632808   9.5693123  27.0747187  85.2999432   9.4877541
  27.0028117  86.7798002   9.1781723  99.5754623  34.5217681  61.1477375
  99.9331856  33.9566016  61.8324661  99.0188980  33.9433646  60.6262827
 101.5248824  95.7871993  10.9578335 100.7314874  95.4785903  10.5202019
 101.7304469  95.1011069  11.5928566  71.9597435  59.9041939  84.9547958
  71.9469595  59.1642809  84.3476677  71.5907812  60.6315470  84.4537354
  96.8630028  19.5843983  34.5134115  97.3517990  19.5526743  33.6910367
  96.1974144  20.2573299  34.3706226  99.2771626  72.2928047  47.3334217
  98.5821247  72.4129057  46.6863251  98.8352394  72.3780870  48.1782055
  92.6436424  60.5721951  80.3724575  92.2548008  59.7506952  80.0721550
  92.1263218  60.8154821  81.1401939  95.1421452  31.0961890  78.4937096
  95.5939770  31.7848706  78.9813566  94.3335247  31.5087581  78.1901455
  89.7365189  47.1832418  63.6732388  88.9976597  47.0467663  63.0801964
  90.3523254  47.7159548  63.1700134 102.0730495  53.6075211  88.4510040
 101.8561554  53.5595369  87.5199318 101.4147758  54.1962147  88.8202477
  95.7849312  29.9876308  65.2883434  96.1048126  30.7502317  65.7703686
  95.5412674  29.3594575  65.9682369  98.8897705  25.9556174  89.1852093
  99.2329502  26.6463852  88.6183834  99.0340614  26.2811303  90.0737286
   2.7347995  70.6558323  75.0386906   3.3986904  69.9876547  74.8683596
   3.2341243  71.4622879  75.1672792 102.9979134  37.4551344  90.1185226
 103.4968662  36.6705418  90.3458881 103.0072975  37.4760056  89.1615963
 107.2911263  68.0867958  92.3118687 107.5643635  68.4871960  91.4864826
 107.9987907  68.2913065  92.9231071  86.1521339  33.1947684  70.5123949
  87.0745564  33.1822801  70.7677746  85.8851242  34.1072035  70.6237364
  56.6790155  12.3348886  16.7585957  56.3189462  11.7063362  17.3843014
  56.0298684  13.0375082  16.7244541  81.6731453   1.6304156  82.0876503
  81.3078499   2.2804320  81.4874268  80.9730911   1.4681849  82.7199841
  85.2591561  89.3387414  67.8785801  84.3191194  89.5154524  67.9151058
  85.3297471  88.5174013  67.3921108  70.3626203 103.8793171  82.6399994
  70.0120114 104.7694460  82.6087379  70.9163713 103.8672832  83.4206772
  90.6406212  31.8268847  65.2399445  90.2436733  31.7626119  64.3713045
  90.0176907  32.3443580  65.7502460   9.6591570  87.4951155  25.9199822
   9.2907050  87.7876599  25.0863850   9.2368033  88.0493839  26.5762150
  41.7229131   2.3059399  23.4903156  41.2135366   1.5930397  23.8757336
  42.2294048   1.8888409  22.7933705  77.2004461  24.0711379  60.6682920
  77.1741819  23.2724333  60.1414013  77.8531599  23.8904810  61.3447237
  21.0316088  79.3394001   7.5806629  20.1251128  79.5548136   7.3613465
  21.3653662  78.8894255   6.8045342  84.8198605 105.4393466  10.6540978
  84.1231776 104.7922547  10.5439102  84.9352742 105.5079920  11.6018307
  59.5297575  39.6508646  75.0041580  59.9471760  39.8591280  74.1683245
  60.1236963  39.0254068  75.4192162   5.9475710  99.2540247   5.0945675
   5.1767924  99.2128117   4.5284855   6.1313536  98.3410580   5.3158009
   2.2846080  40.3236532  75.8982754   1.8514396  41.0752249  76.3029242
   2.9568435  40.0663471  76.5292406   4.2987158  89.7750123   7.1066868
   4.7606757  89.4185216   7.8654587   4.9920752  90.1224191   6.5456211
  93.3556366  61.8276978  42.9800367  93.9257431  62.1807957  43.6630678
  93.9481831  61.6183519  42.2580290  88.6160755  75.5890179  89.4188118
  89.0260029  76.3981485  89.1130161  88.7502003  74.9673653  88.7034130
 104.9334526  54.1436815  81.2241936 104.4182491  54.1615248  82.0307159
 105.7832718  54.5059729  81.4747810  84.4202805  40.4583120  63.8259459
  84.3121719  41.0493994  64.5710373  84.7017860  39.6306205  64.2157125
 107.8209591  65.4327106  63.2458544 108.0287838  66.3568830  63.1082249
 107.1026230  65.4403782  63.8784409   2.3150398  54.8552179  72.4909449
   2.4415638  54.2851830  73.2494164   1.5325023  55.3644753  72.7019548
  29.4370177  92.1038730   4.7804749  29.1986659  92.9129751   4.3279564
  29.6728995  92.3845322   5.6646835  79.2296696  47.5590086  65.8833265
  80.1598740  47.5243378  66.1063433  78.9247894  46.6575813  65.9868336
  21.6224147  52.3557138  83.0641079  21.0318710  53.1089830  83.0728626
  21.1743595  51.7064047  82.5219917  95.9543897 102.6267846   8.6313069
  96.1646319 102.8317053   7.7202427  96.7232753 102.9125388   9.1246521
  63.7964776  26.3898069  23.5186302  63.2271245  26.7821104  22.8566849
  64.6518472  26.3291675  23.0933106  68.5121107  34.9016857  86.1254215
  68.8628149  34.1267443  86.5644073  69.1897297  35.1474166  85.4955959
  87.6125431  65.1035404  65.2176285  87.6050949  64.1470814  65.1807261
  87.1247482  65.3163385  66.0132408  85.6281757  47.2500134  77.9518080
  86.3664055  47.3989296  78.5426283  84.8538017  47.4140358  78.4900141
   7.3224689  30.1808643  79.6361732   6.5227367  30.5849409  79.9728918
   7.4394561  30.5679798  78.7685919  98.1442738  48.4188604  78.3116388
  97.6601696  48.0137825  77.5920677  99.0552139  48.4183502  78.0176783
   4.7110130  61.1537743  67.1645784   5.4518177  61.3758707  67.7285910
   4.0328266  60.8506298  67.7682400  14.3950846 103.8667519  25.9026158
  13.9923766 103.5858376  26.7242920  14.3178942 103.1066878  25.3259194
  64.6815681  89.3449211  81.0587311  64.5270205  89.2995453  80.1151848
  65.1400423  88.5305786  81.2657833  53.0320215  71.5050220  80.1598263
  53.2841635  70.8498096  79.5091772  52.3606491  72.0296764  79.7236776
  94.4135285 106.2811215  10.7012570  95.0905610 106.5953858  11.3004982
  94.7547580 106.4793570   9.8291886 107.4585438  88.6391258  72.2107983
 107.8238678  88.1021214  71.5076637 107.1216393  88.0063343  72.8450775
  87.5301838  57.9932880  60.9489965  86.9980049  57.1978569  60.9312773
  88.4007931  57.6932287  61.2102127  34.0211633   2.3143417  29.1399491
  34.3345884   2.8244955  28.3931267  33.2680467   2.8063757  29.4669735
  26.4229872  86.2998111  34.8549664  25.7080748  86.8065317  35.2401459
  26.5911868  85.6027253  35.4890167   2.5299884  69.2544651  78.6991930
   1.6988613  69.3625259  78.2368183   2.9391529  68.4961510  78.2823277
  77.0268488  70.5822897  82.3841572  77.4695015  71.1315680  81.7371750
  76.1043549  70.6091356  82.1301460  32.8792335  51.9659615  86.9328499
  32.1770717  51.3156700  86.9147682  33.2389595  51.9054794  87.8178215
  77.1504021  52.7720833  82.0716095  76.6383648  52.8145218  82.8792286
  77.3577309  51.8433714  81.9679928  81.9427586  56.3727427  64.5252085
  82.0828247  55.5349922  64.9665546  81.0237503  56.3521671  64.2583370
  90.0075054  53.7295914  89.6734428  90.7137489  54.1676521  90.1483727
  90.1705742  53.9401150  88.7540340   4.1960289  77.5519276  90.8898354
   4.4235183  77.0558453  90.1034641   5.0338604  77.8789568  91.2174511
 100.0835705  20.6786799  89.0393734 100.1544380  19.7530568  88.8060760
  99.2279625  20.9455562  88.7033081  24.3306114  95.3803349  65.8520031
  24.6145393  95.1228714  64.9748898  23.4853222  94.9462128  65.9671879
  93.3548832  61.4249849  90.6297207  93.8276958  61.5463972  89.8063469
  94.0415382  61.3697386  91.2943172 107.4068642  39.3478680  70.2690935
 108.2119274  39.6925569  70.6554937 107.0962334  40.0496006  69.6969843
  82.9506683  39.2001152  83.2258320  82.3724270  39.9039364  83.5199356
  83.4523296  38.9608765  84.0051556  99.2779160  11.7062700  61.6338587
  99.7333050  11.1650920  62.2788239  99.8230171  12.4886131  61.5499687
  70.5099058  71.3546658  49.7928190  70.4333258  71.4478588  50.7423878
  70.3322697  72.2309494  49.4510555   8.2796671  84.1841252   9.4299996
   9.0100291  83.9903791  10.0175869   8.3270457  85.1302702   9.2928993
  49.8717454   6.5011579   0.4304802  50.7835153   6.7669422   0.5498898
  49.4209817   6.8367750   1.2053406   9.2620041  38.5638809  61.8030787
   9.4080688  37.9797506  61.0589790  10.1290084  38.6769533  62.1926212
  87.8009129  73.0562353  80.9584427  88.4868336  72.4871302  81.3075542
  87.8927612  73.8718748  81.4509106  28.2571986 100.5279095   9.4319737
  28.6088755  99.7728045   8.9604103  27.4500182 100.2053149   9.8327362
 106.3660431  20.9712100  81.3274956 105.6295776  20.3953123  81.5328789
 107.1137428  20.3805780  81.2362099  49.6296599  96.0202010  10.8891976
  49.2523196  96.4901717  11.6328156  48.8726141  95.7257206  10.3828442
  10.2077057  75.8539820  83.8143253   9.3838455  76.2693119  84.0692520
  10.6967784  76.5456629  83.3686638   6.1617519  67.2189045  71.0418892
   6.2542297  67.7948046  70.2829313   6.1136390  67.8142691  71.7898607
 110.0825405  15.4356539  56.0122108 110.7250500  14.7304296  55.9342766
 110.1103020  15.8796978  55.1646900  94.2365170  53.7562132  67.3582125
  93.4667110  53.3543062  66.9555998  94.7186089  53.0220413  67.7387619
   7.7399494  55.6211805  60.6157637   8.3256008  54.9186373  60.8980322
   7.9711773  55.7720280  59.6992445  10.5267669  60.8111238  92.2260380
   9.8092796  60.5886555  91.6327858  10.5295230  60.1061487  92.8735161
 101.5209675  40.8692408  71.7248821 101.1754799  40.2360296  71.0956621
 102.4300957  40.6016159  71.8593836  96.7081642  60.2007151  72.7429152
  97.0329762  59.5515442  72.1189785  95.8627510  59.8553085  73.0296278
 108.4980583  53.5262299  74.8206758 108.8776779  53.9779139  75.5743980
 108.5444260  54.1657019  74.1099310 102.4011421  59.4813871  75.4987049
 102.2115993  60.1620340  74.8529291 102.0574093  59.8294449  76.3214636
  54.7117472  31.6333675  89.6326065  55.1030397  30.8367944  89.9912071
  54.0236998  31.8641663  90.2567482  97.0125771  40.8324814  80.7108688
  96.9668388  40.2528381  81.4712334  97.5947285  41.5412474  80.9846878
  97.9662895  40.6750107  74.8162937  97.4052620  40.5781984  75.5857849
  97.8860474  41.5980768  74.5759916  19.8932125  73.9040470  90.2549648
  19.8115970  74.8248243  90.5034447  19.5531799  73.4215736  91.0085106
  48.7706712  20.1563007  18.6853230  48.1794503  20.8444387  18.9905274
  48.7686303  19.5087416  19.3902313 105.3020763  59.0457582  76.8178082
 104.3510437  59.1520691  76.8394136 105.4816246  58.6706400  75.9556723
  57.6110509  42.4871141   6.8962395  57.1661714  43.0248434   7.5513374
  58.5376218  42.7054865   6.9962608 106.2296772  39.5858622  75.5630445
 105.4081059  39.6476722  76.0503101 106.3326263  38.6510754  75.3847122
  47.7301744   5.4702503  19.5690262  48.5909990   5.6840641  19.2091953
  47.8457883   5.5286009  20.5174267  12.4296286  78.2430561   7.5859177
  12.9861357  77.5620158   7.2081387  12.3324587  78.8886101   6.8858826
  93.7513065  83.6985874  59.3424034  94.1781235  82.8732586  59.5723724
  94.0822220  84.3264675  59.9846601  39.2983392  13.4319813   1.6143524
  39.6736196  13.8208038   2.4044239  38.8920644  12.6197893   1.9168579
 103.0837440  35.6184268  78.8782454 103.9910126  35.4339528  79.1212702
 103.0805683  36.5487146  78.6528826   7.1123840  36.8721366  92.1319389
   7.2230293  37.2899199  92.9860210   6.8670608  35.9698415  92.3366642
  29.8458150   7.1551878   8.6611664  29.3128446   7.3861343   9.4219792
  29.7232965   7.8839476   8.0527889  97.9819393  29.8233080  33.3665442
  97.3372364  29.5930624  34.0355539  97.4685574  29.9295259  32.5656796
  76.0786676  69.3540907  69.5973396  76.4214802  68.8791084  70.3543758
  75.5744696  70.0747824  69.9749947  68.2942677   4.2419797  57.7924633
  68.5919237   4.9055803  57.1701527  67.4176645   4.0054679  57.4893761
 106.8259525  34.7724104  60.6620073 106.3052273  34.6638489  59.8662138
 106.2136269  34.5922661  61.3753414 113.4940052  52.3470306  72.2777414
 113.1920052  53.2505512  72.3708868 112.7561760  51.8880653  71.8762398
  63.6004400  25.3178477  56.4398766  63.8475513  25.6742334  55.5865574
  62.6516676  25.4368329  56.4834881   9.5479109 101.5075619  17.3430931
  10.2634909 101.3194306  16.7358219   9.4527438 100.7055981  17.8569328
  78.5074854  44.9953461  66.7433643  78.3123112  44.7302675  67.6421833
  78.8927031  44.2163086  66.3421869   2.2229054  96.0588391   2.6474869
   2.1702721  95.8755000   1.7094814   2.8519204  96.7770655   2.7162277
 112.7567101  48.0393076  65.6203794 112.7181911  47.8337097  64.6863127
 112.8936005  48.9861488  65.6517696  31.2344649 101.2874730   1.8065560
  30.9616759 101.3985713   2.7173054  30.6909182 101.9046195   1.3167393
   6.4407779  37.8523517  66.4819193   5.5412056  38.1686497  66.3984871
   6.4246799  36.9786859  66.0911751   6.5027954  43.8018084  39.0205336
   6.2192108  43.2362032  39.7387981   7.4586917  43.7894154  39.0689945
   2.4005653  54.8681641  68.2340717   3.0621673  54.6483660  67.5781775
   2.9042770  55.0935173  69.0161943  90.0543022  16.4993858  68.3318949
  90.0068855  15.6850922  68.8328075  89.4469452  17.0902097  68.7771797
  98.1737614  15.8621955  76.8501806  97.5858784  15.8872068  76.0951996
  98.9459038  15.3910971  76.5369892  92.3239994  33.0615139  72.8549480
  92.4849224  32.4840760  73.6012030  91.8864632  32.5045156  72.2110939
  89.8059464  78.1419420  43.3039665  90.0628471  77.8502512  44.1787004
  89.1646385  77.4932337  43.0138969  11.0364009  80.7192230  69.7807598
  10.7991077  80.3567600  70.6343079  11.2813522  81.6259575  69.9653149
  76.0029888  61.1859322  48.2073975  76.6689491  61.7447186  47.8067970
  75.9597301  61.4796019  49.1174078  91.8727684  12.4416733  82.7554131
  92.6824093  12.1286058  83.1587696  91.2498283  12.4966240  83.4800911
  57.4182657   6.0086138  30.1608383  57.7166990   5.7650072  29.2845738
  56.9048551   6.8051702  30.0261700  22.1346953  90.7875474  13.6631310
  22.0967963  90.3867681  14.5315563  21.2715437  90.6207306  13.2844841
  97.3629093  71.7998362  45.4842567  97.6118374  71.0710526  44.9158001
  96.4446545  71.9666290  45.2716255  77.8814173  37.1364760  75.4412889
  78.8242054  37.1120453  75.6049633  77.5464058  37.7794456  76.0662651
  60.2196458   5.3062040  60.7597458  61.0156778   4.8839743  60.4368031
  60.3573468   6.2382109  60.5905354  98.0551052  42.3337364  57.0131016
  97.7409935  43.1368780  56.5977287  98.2300377  41.7393541  56.2834883
 107.3117924  57.5438786  78.0711555 106.5555954  58.0072880  77.7111006
 107.3408985  56.7194366  77.5856876  68.9223340  29.5540697  25.0180638
  68.1442121  30.0456793  25.2808773  68.5785249  28.7389929  24.6524536
  21.2809851  82.6435096  11.7958367  20.6587317  82.6984818  12.5210964
  20.7545950  82.3559411  11.0498821 108.2801533  13.0759954  78.2310629
 109.0314960  12.9015386  77.6642418 107.5468349  13.1937885  77.6272392
  25.4410888  45.9663534  47.5788212  24.5097400  45.7591724  47.6555920
  25.7951309  45.2743959  47.0201826 108.5308075  78.1076431  32.5259733
 108.7277126  77.2317314  32.1939564 109.1182995  78.6858749  32.0394158
  81.0991669  79.4417667  62.9520702  80.4247761  79.0463543  63.5044098
  80.9174728  80.3808975  62.9874611  97.8008175  32.0501161  69.5234251
  98.5985279  31.5227270  69.5652342  97.9134274  32.5933266  68.7433767
  13.1852581  50.4318762  74.4305086  13.8564922  50.8149242  73.8657475
  13.5782196  50.4316330  75.3033304 108.5597134  67.3619556  77.0192862
 107.9062939  66.7565775  77.3696995 108.5820389  67.1735001  76.0810852
  86.5292645  41.4568520  88.1613636  86.5468502  42.4097013  88.2507992
  86.0962200  41.3030529  87.3216915 113.0196667  40.5695581  86.0814381
 113.7802696  40.1313496  86.4631462 112.2904873  40.3225327  86.6502094
 105.1612759  51.6022539  64.3999624 105.8777237  51.8056488  65.0012732
 105.5206013  50.9337330  63.8167000  87.0296383  71.8138456  48.9354801
  87.7312756  72.0658922  49.5358229  86.2237930  72.0298719  49.4047070
 109.3749905  39.2088008  87.4545765 108.6226463  39.4702101  87.9854870
 109.6877003  40.0248623  87.0640755  39.4589140  58.4929873   2.1884453
  39.9687579  58.8353272   1.4542114  40.1153471  58.2237838   2.8309834
 102.0307350  83.5531139  53.9099646 102.8964043  83.3686352  54.2744207
 102.2052002  84.0968513  53.1417561  24.1439345  99.9274523  22.2743714
  24.4572642 100.5609829  22.9198849  24.3985178  99.0763886  22.6309025
 109.4146729  49.7610760  80.1785088 109.8052216  50.5457783  79.7938776
 109.8557186  49.6630144  81.0223579  28.5535052  84.5150287   8.4944927
  28.5376265  84.7111352   7.5577271  28.9017107  83.6249573   8.5469925
  22.6654150  75.2473958  23.6434948  22.8654196  75.9919508  23.0761635
  23.4120371  74.6579154  23.5371887  94.7176743  63.6507845  83.7604046
  94.4368458  62.7569532  83.9564514  95.6194401  63.6937332  84.0785408
  72.2803262   9.2145616  31.2820542  72.9103235   8.5330469  31.5162956
  72.7290395  10.0354177  31.4847290  76.6444016  57.8747988  78.6699486
  76.0971642  57.6435757  79.4204855  77.5389910  57.8518105  79.0096712
  80.7031727  40.3867292  75.4383659  80.6719685  39.5406270  75.8848667
  81.5967274  40.6994152  75.5798769  14.7020628  50.2160860   9.0703785
  15.2294638  50.9100876   8.6748612  14.9343493  49.4286902   8.5781586
  53.1231976  41.5051651  92.1603775  53.0214739  41.1596441  93.0472279
  54.0590954  41.6896582  92.0810986 100.1510620  43.0438423  76.9908142
 100.2568245  42.6837969  76.1102390 100.7220650  43.8119411  77.0056915
  83.7398052  96.9456768  57.8203535  83.6505318  96.2260914  57.1954870
  84.5375443  96.7415237  58.3083773   3.2976295  38.6197162  35.0421357
   3.9633514  38.7356114  34.3641901   2.9400016  39.4969726  35.1790929
  90.8216286  62.1601629  84.7322845  90.0859928  62.0644426  85.3372002
  90.7487774  63.0573225  84.4066620 107.0476913  37.9492283  47.3470831
 107.0560169  38.9031768  47.2687006 107.9699612  37.7079201  47.4331903
 103.2717991  27.9446220  80.1499939 103.9309025  28.6385274  80.1675510
 102.9187679  27.9720545  79.2606926  82.6673508  30.7391238  74.9666834
  83.3493233  30.4241419  74.3734407  81.9404793  30.1290274  74.8414850
 110.3932476  71.0908413  62.3277807 110.9648800  70.7970953  63.0371380
 110.9912586  71.4427519  61.6684055  95.4529095  52.6236582  52.8523588
  94.6032810  52.5079870  52.4269295  95.8096313  53.4214783  52.4619055
  25.1045372  88.3239841  85.0270176  25.8351661  88.0355930  84.4799805
  25.3335620  88.0280304  85.9080315  91.4129162  56.6812277  66.7176723
  91.4675617  55.7879686  66.3780642  90.6037331  56.6940498  67.2288227
 104.2099285  71.6443920  72.6047421 104.5531178  70.7518435  72.6473665
 104.6574974  72.1071720  73.3130789  93.1659126  35.7558465  56.0565186
  94.0857887  36.0108876  55.9856987  92.7443600  36.1679840  55.3024197
  91.2289906  49.3590069  68.3539772  90.4598999  49.8542690  68.6358404
  91.1173439  48.4959126  68.7525082  77.5407219  78.4392166  72.4989748
  77.5563097  78.9513350  73.3075047  77.4999142  77.5291014  72.7926683
  25.3190281  40.7207918  90.4868031  24.9070789  39.8626184  90.5871105
  25.4630424  40.8086729  89.5445824  53.8087943  73.9138277  12.3450195
  53.5945895  74.0148003  13.2724583  54.6160700  74.4150622  12.2297012
   6.7387821   6.7030072  76.7756367   7.5502540   6.8148607  77.2708464
   7.0116665   6.7333591  75.8586597  86.9407940  64.0639925  70.1169157
  86.2224579  64.5896387  70.4689407  87.5142765  63.9089060  70.8674526
 112.8458453  87.4910982   6.6315567 113.4670115  88.2139857   6.7199814
 111.9853307  87.9062231   6.6900646  19.3598320  23.8530278  78.8769102
  18.5374309  24.3177414  78.7222004  19.1157104  22.9274797  78.8763142
  82.8875923   7.8775370  76.2879419  83.3796883   8.4982288  76.8253565
  83.5018730   7.6145887  75.6025553  90.6257057  97.1618366  83.5652924
  90.4449463  97.9328251  83.0275726  89.8178959  97.0191002  84.0585423
  56.3649228  25.2714950   5.0509941  56.8251279  25.6620151   4.3080723
  56.7010644  25.7408268   5.8145153  79.4568062  66.2354994  79.0152979
  79.0855026  65.7126093  78.3046961  80.3429699  65.8916187  79.1279268
  24.9010135  91.9379997  67.9416513  24.7806026  91.1772728  68.5100079
  24.1759063  92.5213909  68.1655073  59.5550397   2.1224768   5.5821049
  59.1448835   1.3938934   6.0481274  58.8209871   2.6592237   5.2832615
  74.0226796   2.7572758   4.8116028  74.2728952   3.5661489   4.3651211
  74.4918302   2.7889378   5.6453526  99.2985058  45.2575684  80.5640984
  98.8616848  45.0902271  79.7289848 100.0807476  45.7568169  80.3294182
  14.9395801  51.5121937  72.6868486  15.6983806  51.0901260  72.2839737
  15.1537181  52.4451208  72.6818705  98.6174774  53.9994574  61.5446615
  98.7993145  54.5897484  62.2759104  99.2006302  54.2966795  60.8462143
  97.1636677  59.9422693  46.4920139  96.4804363  60.1385355  47.1330357
  96.8561840  60.3492308  45.6820297  16.8248370  89.7365649   0.0574600
  16.1404612  89.0683467   0.0206482  17.6080038  89.2621930   0.3364765
  83.0729345   3.0754787  13.6451161  82.4259046   2.4610407  13.9916050
  83.5047391   2.5954182  12.9384911  22.8025676  56.0268641  63.2578897
  23.0640365  55.1824379  63.6250496  23.1623985  56.0241127  62.3709011
  90.0009111   4.8272449   8.8091767  90.6280568   5.4577190   8.4550202
  90.5389074   4.1992981   9.2913353  60.1140073  23.0859692   7.6743138
  60.7892946  23.3560020   7.0519840  59.2882684  23.2685596   7.2259342
  97.6539898  47.9163837  68.3861589  98.1931782  47.6149082  67.6549768
  96.8258381  48.1755495  67.9821587  50.9668874 106.4111329  70.5106068
  50.2197217 105.8875028  70.8000660  50.8076524 107.2799985  70.8793211
  77.4899534  10.2509386  15.3873646  78.1620935   9.8566133  14.8315155
  76.8239930   9.5693905  15.4780304 107.9959583  88.3905029  38.8760495
 107.0759392  88.1291485  38.8375497 108.0259514  89.2297745  38.4167480
 104.8405075  77.2230768  77.4026823 104.4449520  77.9370022  76.9026089
 104.6331978  77.4260235  78.3148575  14.5476009  83.3766842  91.6192722
  13.7403156  83.1837463  92.0960331  14.4195987  84.2626095  91.2801743
   6.0562278  76.5634775  81.6980171   6.4053489  76.9504213  82.5008965
   5.1063873  76.5869713  81.8141651  53.5804942 106.5612633  15.5791485
  52.6748469 106.8400939  15.7143986  53.8628199 107.0354350  14.7970402
  71.3302708  94.0606594  81.1832428  71.1781693  93.3717060  80.5363750
  70.5066633  94.5475197  81.2127686  52.9179529  26.6883356  33.9831078
  52.7637246  26.5694172  34.9202835  52.0428613  26.7790396  33.6059773
  62.0607808  26.1717398  17.6434433  61.8214658  25.2714426  17.4234020
  62.8988221  26.0922558  18.0990803 104.1813755  68.6831665  45.4143238
 103.5384178  68.5594893  46.1125708 103.6597252  68.9207888  44.6477413
  57.4811414   9.7475798   4.3046677  57.9412893  10.2332909   4.9891960
  58.0273488   9.8554546   3.5260403  77.3845151  11.4022476   7.8014767
  78.2050184  11.5434629   7.3291790  76.9348672  12.2461492   7.7580559
  71.7719415   8.5842974  15.5709564  72.1448091   8.3718903  14.7153294
  70.9505323   8.0938847  15.6026852  32.0545294  89.0347488  13.1307614
  32.3367217  88.3542187  12.5196278  32.4325659  88.7741525  13.9706432
  95.1772213  46.7451906  80.7304478  95.6805706  46.4002752  81.4679432
  95.7038021  47.4733639  80.4007339 106.7745686  86.6801167  90.7760906
 106.3418198  86.9039536  89.9521637 106.4203930  87.3039436  91.4098358
  98.5202122  21.7316628  82.1598244  98.3101273  21.4997220  81.2552261
  98.8326454  22.6350141  82.1090794  87.5564575  27.1981072  71.4255619
  87.3870277  26.2692904  71.2680054  88.4561443  27.3314357  71.1272049
  79.1189908 106.2098825  55.5869818  79.9436711 106.6415992  55.8100510
  78.6610650 106.8406489  55.0314045  13.0935194  66.9332225  13.9857018
  13.2425978  67.8072770  14.3463051  12.1771910  66.9413323  13.7090885
  65.0287393   2.7917463   1.8303978  65.9249261   3.0462629   2.0501911
  64.5048669   3.0954058   2.5717270  17.4126197  74.7957087  77.9092741
  17.3874046  75.0025988  76.9750404  16.5106823  74.9171734  78.2059097
  25.7693102  93.2034810   2.9504978  26.5280535  93.7253983   3.2115376
  26.0855010  92.3000557   2.9594910  72.7247861  21.4195663   3.3523667
  72.0740178  21.9843275   2.9354965  72.2635701  20.5948002   3.5049450
  38.1327441 103.5203440   4.8144447  37.9871371 104.2858155   5.3703987
  37.2729495 103.3296616   4.4394314  96.4821485  16.3801033   6.5622818
  96.0850671  15.5656940   6.2535679  97.3399499  16.4041216   6.1382019
  78.7255049  42.3937321  67.4509430  79.4030285  41.8098640  67.7919531
  78.3961582  41.9482994  66.6703367  36.4769652  94.1395409   9.6227276
  36.8293765  94.3116171  10.4958927  36.0251238  93.3000143   9.7079765
  52.2424558  11.0679800   6.4078152  51.9684938  11.9044334   6.0316097
  51.4513257  10.7196981   6.8189633  82.0865250  71.9036484  50.9646463
  81.7382717  71.0157204  51.0454464  81.7820072  72.3530245  51.7530394
  78.1941891  32.2903013  89.1320229  78.3860302  31.4609456  89.5697403
  78.0366325  32.0485950  88.2193470 101.4054966  59.6181965  80.2603912
 100.6852341  59.0903950  80.6051826 101.8746090  59.9204350  81.0380936
  58.1538489 104.6257908  10.9959709  57.2779467 104.3474324  10.7284939
  58.1019881 105.5810196  11.0288250  94.3140507  69.6441174  71.0884523
  94.9142361  69.1128826  70.5651855  94.7954559  69.8241711  71.8959570
  13.5577681  99.9258215  11.3343155  13.7979414 100.7163031  11.8177235
  14.3805792  99.6184905  10.9538281  80.7161903  44.4335175  70.5508518
  80.5607224  43.6640644  70.0031281  81.6581154  44.4202900  70.7206345
 106.0048199  31.2505293  54.0251541 106.4869976  30.4760885  54.3149281
 106.0029030  31.8303442  54.7867584  78.0629778  61.1980343  75.1629782
  78.2983828  60.5765676  75.8518887  78.3701706  60.7873631  74.3547583
  94.9984360  36.0754752  83.9324665  94.9164391  36.1072993  84.8856163
  95.8728123  35.7174492  83.7791157 111.9547176  48.1311512  50.6441927
 111.9511223  49.0722418  50.4693508 112.8192043  47.9602957  51.0179615
  85.8716202  53.2869053  45.6274843  86.2161255  52.8834057  44.8307800
  85.9016800  54.2273903  45.4519272  45.6961873   7.9776985   0.8336842
  46.1922220   8.7410385   1.1294758  46.1263135   7.7129061   0.0206101
  21.1487868 105.9652312   2.2194111  21.8079855 106.5810473   1.8993389
  21.4282992 105.1160080   1.8774712  49.3900874  92.3430927  39.4850361
  49.5495894  92.2325499  38.5477173  50.1377203  92.8531487  39.7966969
   7.9585125  95.6617928  68.5890055   8.7875797  95.3549576  68.9560652
   7.8357936  95.1337051  67.8001499  82.9153061  59.2943907  58.6213732
  83.3676910  58.6714172  58.0526161  83.3280849  60.1366091  58.4302855
 101.6528416 101.4063723  11.1840641 101.7839957 100.4611046  11.1098873
 101.6946030 101.7254431  10.2825749  11.9372512  55.4600239  79.6952295
  11.6771175  56.1953735  79.1404104  12.6569034  55.0444460  79.2202282
 100.6606865  46.9512939  62.9665422 101.5832996  46.9688797  62.7121639
 100.2782440  47.7144575  62.5334644  64.3150857  10.1737434  11.3064205
  64.1342119   9.4889814  10.6625092  63.9894727   9.8173315  12.1329605
  91.7056465  69.1621256  73.5655069  91.0866165  68.8239336  74.2125416
  92.3782253  68.4841728  73.5002995  82.5879097  43.7124205  87.9926586
  83.0694389  43.1054211  88.5547256  82.2054386  44.3474388  88.5982132
   6.9726993  48.5165262  81.1533546   6.7409660  47.8915119  80.4664135
   6.6605617  48.1103516  81.9619560  25.5324794  63.8747787  90.3584671
  25.6176521  63.5215235  89.4729233  26.2555553  63.4787941  90.8448696
  95.2492523  31.6410160  45.9926271  95.8119392  31.3019919  46.6888142
  95.8123875  32.2365069  45.4981565  96.6774750  69.2136335  57.5884533
  95.7347965  69.1961241  57.4232817  96.7526054  69.2871141  58.5398674
   6.1027671  40.7637024  69.0494013   6.1874820  41.6333246  69.4403219
   6.2348796  40.1589870  69.7795343 106.9916821  11.1331964  60.3169441
 106.1871719  11.5471494  60.0044775 106.7238235  10.6477547  61.0972214
  24.7916129  94.1824706  18.9810478  24.6480181  94.4617779  18.0768406
  25.7290175  94.3114073  19.1255581  61.6214325  63.6590481  81.1759853
  61.4122917  64.5924950  81.1418343  60.8076812  63.2414341  81.4581490
  69.5928243  20.9044725   3.5702622  69.5943597  21.8248207   3.3072197
  69.4388727  20.9255678   4.5147621  23.3402969  88.6901855  48.1499767
  22.7060653  88.7205601  48.8662577  24.1691829  88.9487553  48.5528708
  83.1775716  80.5110914   3.4432423  83.5428575  81.2893373   3.8641083
  82.5998452  80.8558828   2.7623665 110.7106495  43.7918472  60.7221651
 110.7241440  43.5621166  61.6512918 110.5311203  42.9654789  60.2736998
  94.1782475  94.1146469  70.2476215  94.3018818  94.3127728  69.3193483
  93.4278965  93.5206795  70.2678823   2.4987651  64.3041182  40.3855419
   3.0179741  65.1081228  40.3700876   2.6642276  63.8957930  39.5357633
  16.9252875  77.7175243   8.0288326  17.5417807  77.3919852   8.6847222
  17.3273566  78.5217578   7.7005398   1.4667656  91.2567139  92.0678711
   2.3456146  91.1786556  92.4390507   1.1164333  90.3662682  92.0924473
  39.9352314 104.8821926  51.6430998  39.8103286 104.3719006  52.4432468
  39.0736438 104.8885727  51.2261438  21.1078074   1.1457443  69.3453741
  21.6939642   0.8366012  70.0360918  20.7554152   1.9698619  69.6813488
   2.2311546  62.4410963  73.0863953   2.7558376  62.6143169  72.3047733
   2.6992084  61.7389917  73.5382986  24.6405365  73.9329863  59.5886278
  24.5800830  74.8861599  59.6522141  23.7419750  73.6463785  59.4252586
  91.4393139  81.8052769  83.9985180  92.3410892  81.8952465  84.3066311
  91.4802265  81.1154842  83.3361340  94.0844440  13.0537117  69.3638802
  94.0539837  12.2222686  68.8905907  93.8251972  13.7081683  68.7152624
  11.5827228  58.8696384  48.8885593  12.0480205  59.1922903  48.1167936
  12.0111038  58.0393600  49.0967846  30.9381439  59.9275494  74.6298790
  31.3603260  59.1104126  74.3647671  31.5739395  60.3489876  75.2081442
  14.3350604   5.1708316  60.4705334  14.2006018   6.0925769  60.6908417
  14.3851187   5.1578617  59.5147276 108.6672783  62.4654770  56.2864733
 107.8069019  62.0805645  56.1196661 108.6472034  62.7043581  57.2131681
   3.8522865  51.2349176  77.6984262   3.9693405  50.9239626  76.8007421
   3.0298664  50.8372831  77.9843235 104.5048428  52.1838522  92.2472954
 104.3523216  52.6377678  91.4184761 103.6440468  52.1517467  92.6647186
  19.8915531  38.6567307  69.8804808  20.4861499  37.9330468  69.6830940
  19.5742942  38.4717560  70.7644272  74.6213582  13.9178163   1.9018662
  74.0837243  13.1538708   2.1106064  75.2981141  13.5811788   1.3145744
 107.6653576  60.0966406  45.6112719 107.4671078  59.6562195  44.7848606
 106.8094540  60.3379917  45.9653902 107.9519463  45.8221579  70.9526730
 108.1299877  45.8889294  70.0145483 107.7653694  44.8942614  71.0956049
 102.2918415  90.2846241  86.2508869 102.8997898  89.5476055  86.1922932
 102.5571060  90.7515049  87.0432854  77.7743101  95.0463104  78.4954357
  78.2773352  94.3587399  78.9318275  77.0129585  94.5929718  78.1334066
  11.8218757  80.1727581  27.8715253  11.6508152  79.3362331  28.3041978
  11.9848682  79.9406338  26.9573140  86.2204075  61.2725639  65.1123905
  86.0449696  60.5547237  65.7207918  86.3653564  60.8423090  64.2697144
   7.5447895  78.9956713  83.6122322   8.0489303  79.5619345  84.1965389
   6.7587806  79.5020580  83.4072971   1.8844272  85.8863926  90.0303078
   1.7612602  86.7172623  89.5712662   2.6067974  85.4618549  89.5675087
  20.1697399 105.8006477  26.0172820  20.1128341 104.8890400  25.7309651
  19.7231819 105.8141327  26.8638229 110.1485443  57.7904224  70.9261799
 110.8607197  57.7927732  70.2866268 109.3514824  57.8236532  70.3972006
  37.8007747  81.2043667  27.0877123  38.1008579  81.2493610  27.9955411
  38.2495262  80.4407787  26.7246819  36.7967941  36.8463802  79.0069628
  36.2624027  37.5910234  79.2829323  37.5715496  37.2423649  78.6079788
   9.4687130  82.3384190  63.2090855   9.1334106  81.6905212  62.5893879
   8.7342311  82.9352570  63.3524466  75.8623075  66.1589766  60.4345560
  76.1129618  65.8740187  61.3133097  75.7340479  67.1039820  60.5166960
   1.6646339 106.6163063  84.5690918   2.5810386 106.3413048  84.5408821
   1.2591125 106.1751938  83.8226223  73.3737710  43.6099035  22.2540295
  72.9046205  44.2242033  21.6894447  73.7624982  42.9778463  21.6493618
  93.1485462  82.5581169  86.9176292  93.7826920  83.0090332  87.4750996
  93.5358620  82.5865841  86.0427570  65.9946302  41.3562090  37.6331436
  66.7674306  41.7741091  38.0131161  66.2834504  40.4694349  37.4176514
  96.7960739  81.5903473  77.5204515  96.9733715  81.3759708  76.6045666
  97.6276302  81.4345741  77.9682016  16.8732597  52.2163534  90.1822472
  16.4044143  51.3937187  90.3225803  17.0758392  52.2199917  89.2467403
  71.3486150   3.8214094  13.2718193  71.4715055   3.7212307  14.2157948
  70.4020932   3.7558491  13.1452191  19.0049030  39.7727466  81.4659882
  18.7329628  40.6903553  81.4824390  19.6845008  39.7122645  82.1373463
  95.0393963  57.2625113  76.1544037  95.8439922  57.7791214  76.1101055
  94.7437668  57.2012806  75.2460670  94.3618393  56.3400936  49.0750790
  94.2267132  55.4802275  49.4733286  95.1944828  56.2603235  48.6097050
 108.8505796  15.1796419  49.4737351 108.9279416  15.9168608  50.0793373
 108.8126710  15.5844862  48.6071884  20.7213832  67.8687906  56.0280609
  19.8323585  67.5156689  55.9938812  21.0907890  67.6713181  55.1673746
  47.7418853  31.4077497  38.3877921  47.8278877  31.4321661  39.3408084
  46.8488075  31.0986876  38.2357359  58.4956220   1.2933618  10.4562103
  58.1059030   0.6245787   9.8931133  58.7144903   0.8285887  11.2638676
   8.5638095  34.7295928  35.0201845   7.7252819  35.0085855  34.6524048
   9.2055656  35.3236604  34.6310067  99.5806408  34.3628049  49.7463512
  99.0917301  33.9517379  50.4592466  99.4346333  33.7893605  48.9939690
  80.1427224   2.7436144   3.7320816  79.2415479   2.9615480   3.9700329
  80.1650384   2.8249628   2.7786076  99.6981907  62.7238846  78.5174322
  99.2116737  63.5229874  78.3150101  99.9403477  62.8177977  79.4387197
 108.6546230  48.6516380  89.2228794 108.2821941  49.3415785  88.6737823
 107.9415512  48.4022713  89.8107338  16.6591121  72.4403286  79.8809958
  16.0373451  72.0611858  79.2597961  17.1176101  73.1145906  79.3796158
  80.2270273   0.2215750  20.0763619  79.4804433   0.7194693  20.4094422
  80.1417306   0.2701837  19.1242134  26.0854198  82.2671032  87.1119881
  25.3605224  81.8926430  87.6125240  25.8049060  83.1611633  86.9165707
  33.7940551  72.3127413  45.6078148  34.5095016  71.7115974  45.8151436
  33.6178733  72.7683449  46.4309883  98.6106968  84.7878075  46.2451410
  98.1289768  85.1733875  46.9769287  98.1948757  85.1545715  45.4648829
  16.8151809 102.4210453  64.2066431  17.3599674 102.8702545  63.5603857
  17.4384739 102.0688534  64.8420143  60.5991510   0.8868439   0.6130421
  61.2312272   0.3964025   0.0875199  60.8252672   1.8049986   0.4644119
  10.1995994 104.0481853  85.5844021  10.6501438 104.8775387  85.7437897
  10.3164245 103.5525131  86.3948917  18.6715557  56.7842722  75.3414488
  19.1713859  56.5696478  76.1290598  18.9682914  56.1497164  74.6891308
  65.9264994  78.7483168  87.6833344  66.8353844  78.5508156  87.9094982
  65.4593849  77.9255009  87.8283024   9.4324638  80.7403088  85.1737309
   9.6556903  80.5988026  86.0937214   8.7272979  81.3872242  85.1951408
   9.8800232  56.5319681  74.5837116  10.2758552  55.9273338  73.9560366
  10.2679683  56.2916327  75.4251242  89.8126411  65.1902485  84.7750664
  88.9876461  65.6281757  84.5657158  90.2461338  65.0788784  83.9289474
 100.3281212  78.6836338  61.3882732 100.1622295  78.1688213  60.5985403
  99.7551060  78.2974815  62.0506716  65.8096460   5.7407076  11.8286144
  65.9736779   5.1517994  11.0920632  64.9307493   6.0847074  11.6690933
   8.2918360 105.4794533   0.5546772   9.1474345 105.0607951   0.4602348
   7.7673438 104.8449738   1.0431111   8.0371620  46.8311930  90.7574749
   8.4005214  47.4627972  91.3781834   8.2589389  45.9767962  91.1276817
  19.8640158 104.5224841  15.0435650  20.8108523 104.4560130  14.9198162
  19.6009161 103.6544497  15.3493893  87.6069355  77.3936272  84.2104912
  88.2046413  76.9554663  84.8162937  88.1703568  77.9670238  83.6908817
  27.9706337  67.6684189  81.5068722  28.6775066  68.2674885  81.2666988
  27.3205616  68.2247877  81.9359303 103.0254078   9.1417378  38.8256741
 102.1815395   8.9544076  39.2367935 102.8002644   9.4662797  37.9537725
  99.9406768  78.1070502  14.9773514  99.0485192  78.4511883  14.9342358
 100.4390908  78.6572940  14.3731606  82.9640293  30.5744576  66.1503792
  82.9593182  30.2280998  67.0427084  82.0895576  30.3798079  65.8132792
  90.8449364  39.8168874  91.0245514  91.5687180  39.1989636  90.9218693
  90.0609970  39.2677665  91.0360050  38.8683652 103.6676795  57.3693275
  38.4173011 102.8577734  57.1309471  38.3695840 104.0102357  58.1110191
 105.6970120  84.9387891  18.4661495 106.3474131  84.7682078  17.7848923
 106.2048055  84.9832351  19.2763340  80.5977726  31.6929173  53.6943340
  81.2019157  32.2363901  54.2001772  79.9891806  31.3423109  54.3446589
  16.9538977  42.2637708   2.1634972  16.7888262  42.9577954   1.5252793
  16.0831454  41.9991131   2.4601280  74.9029016  72.2949195  60.4860115
  74.1533994  72.5555206  59.9506903  74.5229005  72.0629144  61.3333654
  93.0601978  28.4384966  79.1461182  92.8037453  28.5473871  80.0618744
  94.0011311  28.2660127  79.1797733  51.0756111   5.7027709  38.7856627
  51.7526770   6.2566787  38.3970785  50.2753925   5.9373230  38.3156967
  86.2382243 102.4183882  72.3257399  85.7498906 102.5764537  73.1336880
  86.7225275 103.2303101  72.1758604  27.0911311  89.6201850  81.3754463
  26.6671275  89.0348042  80.7479286  26.7277955  90.4840148  81.1804676
  37.1816205  99.1158045  56.7534685  36.4831018  99.7676254  56.8120480
  36.7287969  98.2969201  56.5519571  42.9049540  21.8318748  78.5492563
  43.7134504  21.4545441  78.2025766  43.1253481  22.0891523  79.4445038
  93.3766556   6.6856444  82.1763134  92.7070141   7.1292287  81.6556835
  93.2396889   5.7548821  81.9998074  80.2337360  37.2627330  83.2736778
  80.5602646  37.6464057  82.4597931  79.8894644  38.0066562  83.7679386
  48.0959034   6.2228703  78.0847454  48.2352066   5.3048140  77.8523684
  47.2912741   6.4663625  77.6270103  69.3256807  22.9413366  65.4245520
  69.2124891  23.8914800  65.3990841  68.6726093  22.6391625  66.0557508
   2.9187729  47.2976304   8.3552754   2.5430014  47.9964502   8.8907063
   2.8580859  46.5160735   8.9045632  98.6638355  25.4707766  85.1382732
  98.3402634  26.3705993  85.1812744  98.2893276  25.0444770  85.9091473
  62.5569677   4.3955499  58.5820675  63.3490372   4.8519519  58.2982540
  62.8116417   3.4735483  58.6179304  57.8521633  33.3267713  57.5442886
  57.6327038  33.0501771  58.4339857  57.5344658  34.2279816  57.4884129
  93.2441425   3.4886584  82.5150394  93.1798553   2.5338310  82.5351524
  94.1335201   3.6752236  82.8157616 110.9523249  47.6862676  24.5693123
 110.2310372  47.3763855  24.0216267 111.7107106  47.6929904  23.9853298
  35.4689288  17.7223194  35.8512974  35.8211184  17.9847026  36.7017984
  34.7914386  17.0793474  36.0606432  23.5170077 101.1543757  79.9881077
  24.1627263 101.1569411  80.6946945  24.0387439 101.1964530  79.1867018
 101.9815160  71.2487776  20.6533062 101.8133736  70.4772205  20.1123249
 102.8899575  71.4820166  20.4620945   2.0210316  80.2970417  24.6036255
   2.7930882  79.9341185  24.1695320   2.1199896  80.0420697  25.5209267
  64.5470142  16.7664325  70.5177927  64.4857264  16.4788520  71.4287138
  64.9987078  17.6091671  70.5625582   4.5710804  13.7227726  76.2038851
   4.1644909  14.3019426  76.8484640   5.3371193  14.2072201  75.8961248
  39.4021367  99.1508693  55.4165459  38.7654828  99.4172425  56.0798311
  39.8794269  98.4259379  55.8201504 104.2694903  54.3042562   6.5648281
 105.1082803  54.4685445   6.1339295 103.7897731  53.7480845   5.9510052
  93.5532856  45.0725937  69.7645617  93.2678032  44.5253229  70.4961586
  94.0631771  44.4829512  69.2090797  66.7761040   0.8703033  84.8804665
  66.6693211  -0.0513937  85.1156330  66.9127178   0.8614980  83.9331055
  67.5228310  10.8182907  83.3516598  67.8945732   9.9378633  83.4053707
  67.7494574  11.1207283  82.4722290  91.0876083  16.4602470  79.2575741
  90.7119942  15.9416664  79.9690580  92.0157528  16.2261927  79.2547512
  10.2356245  56.0186551   7.4344456  10.1343920  55.2435903   6.8819344
  10.1537135  56.7561687   6.8297970  38.4024047 104.1157535  72.3094511
  38.2152270 103.6490551  71.4949656  38.2627057 103.4640396  72.9964638
 108.3298206  64.2375994  67.9552889 108.1421566  65.1635313  68.1091261
 109.1691875  64.2365599  67.4951887  69.1627502   8.1186098  80.1872444
  69.0831566   8.7981886  80.8566189  69.9591494   7.6426357  80.4226685
  99.5394040  71.4755638  24.6658528  98.7013675  71.1625261  24.3253624
  99.3015862  72.1277697  25.3248703  42.9237127  16.4673936  80.8254433
  43.0389452  17.3767424  80.5496979  42.0214844  16.2566924  80.5849934
  72.8193092   7.3616499  67.2473145  73.1934357   7.3192620  66.3672781
  72.5186491   8.2660228  67.3364449   7.8722190 101.9105659  87.7936554
   7.2221946 102.3387424  87.2365475   7.9695796 101.0352153  87.4188042
  64.9898004 103.3567694  27.7578855  64.1906594 102.9827589  28.1290030
  64.7101258 104.1890574  27.3766851  73.6645222  28.6464262  75.8443165
  73.1229448  28.5302186  76.6249704  73.6991978  27.7770591  75.4452801
  69.9427365  96.6995061  84.8865509  69.8427915  95.7836557  85.1462746
  70.8870744  96.8539042  84.9116993  90.6613685  68.0957420   0.4745781
  91.1506844  68.8303287   0.1041901  90.9453917  68.0548925   1.3877594
  59.3670368  25.6260610  61.1573601  59.8987722  25.0404167  61.6963530
  59.7870207  26.4815044  61.2471724   8.9101412  71.8165119   6.7758190
   8.1711199  72.3827250   6.5533745   9.0041163  71.9068129   7.7241051
  91.8374252   7.7575260  44.6289682  91.4668846   7.7311832  45.5111456
  92.4779510   7.0463234  44.6168947  47.0868539  96.9508762  77.2586823
  46.6728448  97.5534082  76.6408014  46.8136167  96.0817052  76.9652319
  92.5015926  30.5210018  42.4678946  93.2824230  30.1265264  42.8563881
  91.9107151  29.7833490  42.3163605  15.0957587  35.3074904  16.9391739
  15.2419188  34.8318882  16.1214459  14.4533732  34.7786207  17.4123203
  79.8112535  19.5020974  69.9197340  79.9217844  19.8577034  70.8015299
  79.8613548  20.2661562  69.3453360  90.1510429  16.2398934  85.4981136
  90.7284737  16.9550908  85.2310944  89.3038654  16.6593838  85.6482601
  26.1924504  97.3408706  71.7327261  25.9197711  97.1939433  70.8270264
  26.8069457  98.0730355  71.6820717  17.3073150  27.8300619  73.9793158
  17.3951103  28.6433721  74.4763565  17.5118496  27.1402669  74.6106482
  82.3338890  19.4013166  43.5189772  82.1586800  19.9127567  42.7290630
  82.1813297  20.0131106  44.2391634  14.1929294   1.0207526  92.0158482
  13.4405281   1.3455376  92.5104618  14.3399383   0.1380370  92.3556042
  67.2089577   0.1258022  61.0754013  66.7973804   0.8258863  61.5820742
  67.1977139  -0.6317058  61.6604519  95.0592995   1.6089620  68.8712931
  95.8247375   1.7157763  69.4360304  95.1152992   0.7054168  68.5603237
  46.5963983  89.5644403  66.6793299  46.0340070  88.7979365  66.7907524
  47.4024438  89.2166675  66.2977839  94.9660110  12.0524001  50.8661079
  94.7555733  11.4687574  51.5950203  94.4328022  12.8319311  51.0218191
  99.5902634  13.0261075  89.1733074 100.2414608  13.7227106  89.0901279
  99.4660473  12.7064133  88.2796574  97.6969147   0.6248931  75.8582687
  97.3950291  -0.2728368  75.7197809  96.9273758   1.1662147  75.6821585
  50.2601531  41.0210676  16.9505894  50.4834177  40.8311851  17.8618157
  49.3332961  40.7930644  16.8785774  67.1549558  99.0125603  38.7142086
  67.1465539  99.5960320  39.4729733  67.8630494  98.3944405  38.8952208
  71.1162806   9.2004389  57.4616814  71.1411524   8.6677074  56.6668177
  70.8414888  10.0666344  57.1609735 103.7353516  98.8376458   9.0977776
 103.4829188  99.7285159   8.8551628 103.1805707  98.6276991   9.8490250
  87.6328564  53.3907843  78.3983564  88.3264351  52.8294897  78.0517483
  87.7823830  54.2402792  77.9833412 111.2252235   7.8231794  50.5249691
 111.6852570   7.0671558  50.8896971 111.7857647   8.5696423  50.7366657
  51.4675999   7.5513291  66.6119099  51.0276890   8.1080860  67.2543526
  50.7970190   6.9255120  66.3382244  66.0851765   3.9293489  33.7527132
  66.0385847   4.1424468  34.6847272  66.9214964   3.4746414  33.6524987
 100.8147430  22.1742392  58.9356852 101.3978767  22.5431943  59.5990562
 101.3081455  22.2426629  58.1183100  69.0037107 104.8886607  48.8021708
  68.8830327 105.8379963  48.8229227  69.6457433 104.7137350  49.4902277
 103.2751751   1.4404316  72.7849293 102.8106785   0.7784265  73.2970142
 102.7990627   1.4791672  71.9554424   6.8732215   3.8188997  81.3950634
   6.6745998   4.4659609  82.0718956   6.0664131   3.7509900  80.8844948
   9.0435698  68.4808917   2.6147473   9.5496561  68.5061188   3.4268200
   9.6138480  68.8906629   1.9642937  60.9516621  16.6619122  76.5655088
  61.3291502  16.8563545  77.4233723  60.2398968  16.0491693  76.7503452
  20.8804419  72.9049678  11.1865914  21.6048148  73.3918638  11.5795910
  21.1858180  72.6914413  10.3049004  95.7307148  23.0161881  57.9437399
  95.3223896  23.3703446  58.7337255  96.6340446  22.8335285  58.2023335
  49.7249269  94.5138980  62.1595144  48.9402913  94.4413674  62.7029562
  49.4254159  94.9538792  61.3639355  84.4970273  80.5575014  41.5405750
  84.3207883  81.1004925  42.3089075  85.3788327  80.8094502  41.2663937
  64.8565483  13.1729257  82.9935455  64.7661161  13.5921741  82.1378136
  65.6657028  13.5358822  83.3537769   4.0322688  99.5681889  15.2744400
   3.7686446 100.1043065  14.5265686   4.3697741 100.1967366  15.9125912
 101.6552639   1.4967147  70.5204964 100.9006786   1.6485527  71.0895061
 101.4262772   1.9300228  69.6982813 100.8998489   6.7237759  66.7049551
 100.8192062   6.0383213  67.3681927 101.7919350   7.0545995  66.8096638
  76.3918209  15.9783256  37.1831274  76.3988781  15.8037281  36.2420130
  77.1478271  15.4984963  37.5214243   0.9821846  25.7714868  82.9841900
   0.5506851  26.5066361  82.5487614   1.0332634  25.0916481  82.3122883
  87.1129560  99.9442810  59.4339466  86.6054010 100.5475623  58.8911057
  87.5466966  99.3652261  58.8072157  59.7661114   5.4548448  54.5149708
  60.4183006   5.3751165  53.8188887  60.0869083   4.8809302  55.2106285
   5.3373577  12.4311829  60.8068132   4.7728874  11.6811526  60.6195927
   5.6947757  12.6805866  59.9545908  92.0233059  10.6918323  65.4048777
  91.2508011  10.7059693  64.8398399  92.6646805  11.2354779  64.9473619
  67.5393581  28.1057334  38.8124752  68.1531477  28.3472037  38.1187987
  67.7432775  28.7036991  39.5315623 103.7932587  25.8119774  81.4512444
 103.0521202  25.5739903  82.0082951 103.5258770  26.6307735  81.0337448
  87.7430439  20.3072715  46.8959999  88.3613205  19.7185934  47.3289156
  86.8809891  19.9829400  47.1565723   3.5341026  47.6560593  65.5523252
   3.1686069  48.3826113  66.0570669   3.2297756  47.8088808  64.6577549
  93.1858730   7.7107799  72.1338749  93.8956261   8.3156210  71.9178867
  93.5893631   6.8437302  72.0931673  68.2456541  20.1333022  63.7466049
  68.2746935  19.9813783  64.6912241  68.3162594  19.2599392  63.3612680
 105.0646114  19.2965400  89.1769505 105.5273724  18.8062489  88.4974575
 104.3719959  19.7612643  88.7073231  35.9574463  22.5804734  32.3106241
  35.9312774  23.3285880  32.9071712  35.1919700  22.0574069  32.5486946
 109.1959381  33.2241392  70.5463457 109.1565990  34.1626000  70.3620243
 110.0034428  33.1122255  71.0479879  84.2700672  22.2268224  47.2566509
  83.8621807  22.8573751  47.8501701  85.1973724  22.2400379  47.4936152
  90.6809807  37.4846673  61.1404753  90.0266266  38.0053401  60.6747007
  91.4132690  37.4165869  60.5278158  18.0892184  76.8606336  10.3406632
  17.2838118  76.8352921  10.8573067  18.3761313  75.9483774  10.2994454
  94.0790081   4.5516682  74.8384190  94.8315430   4.8305956  75.3600693
  94.2184925   4.9554172  73.9818192  40.1281737 102.4685154  90.3106785
  39.8047685 103.2667778  90.7283115  40.7835006 102.1281666  90.9197330
  75.6029271 106.5927773  74.8492908  76.3625192 106.3584629  74.3160391
  75.4320954 105.8135363  75.3782845  56.2702039  10.7178623  18.8475144
  56.8596128  10.7583076  19.6006405  55.4415468  10.4028780  19.2085468
  68.7578248  90.9553505  91.3246727  68.9819478  90.0248170  91.3142014
  69.6012067  91.4041913  91.3837051  98.8263321  22.3871374  78.1408739
  98.7811565  21.4380980  78.0246210  99.6915150  22.5410414  78.5203457
 108.4751606  45.7050991  76.8439054 107.6916790  45.8882523  76.3254023
 108.3647442  46.2283945  77.6377535  22.7759647  72.6774097  69.7094059
  22.2588634  72.2465182  69.0288401  23.6442899  72.7818394  69.3203926
  44.2946290 105.9828141  49.7452974  43.4501981 106.4335529  49.7448778
  44.8805093 106.5722326  50.2202320  84.8395824  33.1239986  82.2863483
  85.2322865  32.9430223  81.4323807  85.3236389  33.8806772  82.6170444
  74.1820002  15.9305167  58.9305639  74.0803480  15.4687703  58.0982876
  73.8326979  15.3251207  59.5845652  79.6612501  18.2509375  51.2807989
  79.5512390  17.9086149  52.1679020  80.0500298  19.1168070  51.4047050
   9.5126008  96.4100433  64.0557909   8.8818359  96.5968001  63.3604574
  10.0856017  95.7386935  63.6853981  73.6084603  98.0046177  55.3519726
  73.4432267  98.3906806  56.2121391  73.9032602  97.1139545  55.5418205
  96.5330505  12.0084262  25.5097985  95.6490707  12.3245049  25.3230000
  96.4849377  11.6788650  26.4071846  41.9629335  81.2622691  92.0759201
  42.1339177  81.2439728  93.0175495  41.4221810  80.4888869  91.9156075
   2.8510334  26.1870790  74.0297222   3.6166622  25.7049561  74.3421316
   2.1547748  25.9551191  74.6442556  80.1084232  19.9129939  59.7495413
  80.2565384  20.1971197  60.6515217  79.1922045  20.1301193  59.5774221
 105.0362968   4.8044339  64.6802807 105.7276344   4.4016039  64.1549158
 105.4815006   5.4923481  65.1750517  92.3573780  49.1931915  84.7952843
  92.8200531  48.3749199  84.6147442  91.4352322  48.9851284  84.6449471
 102.1304703  35.2085185  50.4494238 101.7502403  36.0566068  50.2205038
 101.4481735  34.5734954  50.2315998  60.7284164  19.4064593  69.3341875
  60.5379963  18.7212276  69.9748325  59.8688650  19.6823680  69.0159512
  73.1782532  28.6818981  87.6229668  73.4142017  29.6064329  87.6990986
  74.0154886  28.2282805  87.5254726  22.4930670  77.7195318   9.3396294
  21.9121363  78.0086095   8.6359417  23.3713534  77.9449041   9.0329373
 108.0493641   5.5562073  56.8738699 107.3025036   6.1425078  56.7527008
 108.0370808   4.9900401  56.1021614  97.7644920  15.1161981  58.5969782
  97.7664185  15.8787286  58.0183792  98.6844349  14.9892426  58.8289595
  12.2559168  45.6805898   1.4939129  12.2450259  45.4011543   0.5784714
  13.1550982  45.9720929   1.6446602  85.8319283  10.9914517  49.2312002
  84.9031830  11.2227249  49.2441368  86.2658978  11.7178476  49.6786976
 104.8271800  76.5148313  25.7567131 104.2571402  75.8383567  25.3911030
 104.3682242  76.8168647  26.5405285   7.2440578   7.5660324  65.8215094
   7.1675827   6.8587899  66.4619684   8.1805755   7.6153344  65.6298256
   2.5873233  19.8717809  61.4600134   2.8201057  19.0045810  61.7916918
   2.3514797  19.7226417  60.5443907 112.9176521  46.1413670  67.3756933
 113.1676579  46.7792320  66.7072201 112.4593639  46.6569948  68.0392742
   2.5798370  21.4186192  70.1428318   3.3287098  20.8436275  70.3003407
   2.9097702  22.2978306  70.3281975  80.9726238  29.1947746  71.7876959
  80.1701260  29.6267462  72.0803165  80.8758259  28.2877302  72.0777512
  84.5328617  28.2647943  61.7078495  84.3316936  27.4964452  61.1736155
  83.6887932  28.6994839  61.8296337  34.9579644  16.9396210  29.4242597
  35.8982658  16.9616735  29.6019673  34.5942545  16.3993263  30.1257062
  10.4517986  14.3190718  81.6596699   9.9877597  15.0502849  81.2519550
  11.3135578  14.3201041  81.2430096  70.8478022  22.5874376  85.1649380
  71.0279274  23.3910513  85.6527805  70.6155968  21.9463658  85.8367538
  31.7818784 104.1789282  41.1526346  31.9504022 103.2379130  41.1044359
  31.2129163 104.2815960  41.9155025  74.5145845  16.0686624  42.2796535
  75.2690268  16.6015267  42.0284414  74.8717356  15.1884902  42.3978615
  98.8357735  24.3658948  66.2352562  99.2448616  24.1975880  65.3864050
  99.0329647  25.2845168  66.4182377  46.3366841 101.0320587  53.9097357
  46.6876649 101.1135853  54.7965288  46.2971257 101.9313285  53.5841894
  74.6302223  14.0701222  36.8674040  74.9118471  13.6692190  37.6897144
  75.0240660  14.9424672  36.8790174  18.8221075  66.6161032   1.1512863
  18.7502291  66.8302710   0.2211201  18.1503012  65.9498460   1.2962639
   3.6737873  13.7985241  69.1975164   3.2980968  13.9321399  68.3273220
   4.4878341  13.3214915  69.0362787  29.1863584  87.7038289  86.3230991
  29.6372794  88.5469568  86.3681984  29.3722772  87.2874570  87.1646976
 109.6578789  27.1941042  78.6513090 109.6125221  26.8876338  79.5569849
 109.8866367  28.1207824  78.7232065  84.6230984  14.6188486  84.6541977
  84.1158772  13.8440430  84.4120312  84.9066353  14.9902332  83.8187790
 109.1503716   2.4653354  69.2418003 108.6862850   1.7478684  68.8104105
 108.4588337   3.0688220  69.5134974 103.7232494  16.5087593  84.5841789
 104.6599674  16.3126886  84.5654774 103.6506176  17.2769952  85.1505470
  90.4200363  22.8584552  40.3826761  89.5047760  23.1277490  40.4601240
  90.5511570  22.7226162  39.4442821 102.9794788  49.7891712  67.9386806
 102.9697418  49.0592480  68.5578346 102.0904064  49.8150873  67.5849724
 100.1529789   7.8746128  76.0961580 100.8217144   8.4359884  75.7038784
  99.4422913   8.4732938  76.3258028  77.9656410   6.0162479  71.1650658
  78.5551977   6.7500621  71.3387680  77.9996729   5.9012830  70.2154016
  21.2146952  41.9317646   9.6017849  21.9313719  42.2219248   9.0375149
  21.1435320  42.6145847  10.2688133  95.2351761  22.2649384  55.2895117
  95.9278107  22.7925897  54.8919296  95.2901363  22.4627614  56.2244320
  84.6592426  24.3889928  83.0903339  84.7137356  24.7377014  83.9800930
  85.1063442  23.5438848  83.1365013  10.4324343  62.3038567   7.9489338
  11.3590052  62.4924381   8.0977356  10.0717165  63.1247927   7.6140034
   6.0723926   8.4142703  61.5288305   6.0172893   7.7545571  62.2201872
   6.7350246   8.0755532  60.9268141  56.2594079  99.5260311  59.7015333
  55.9621953  99.8123450  58.8378620  55.8308934 100.1249666  60.3129959
  32.8096583  56.1942003   0.0337231  33.1928732  56.7755486   0.6905377
  32.4429800  56.7848874  -0.6242073  44.6957400  79.3543084   7.0912087
  44.1669753  80.0823553   7.4176895  44.0659144  78.7731988   6.6647732
  27.6145651  76.5681846   3.1293881  27.9253771  77.4719603   3.0762875
  27.0983031  76.4452512   2.3327744  77.9642630  17.5719643  66.8551588
  78.2428217  17.1781623  66.0283852  77.5616121  16.8514991  67.3399591
  99.2159176   9.4861579  45.5750847 100.0514030   9.7823155  45.9363079
  98.6663818   9.3264455  46.3423777  65.9051516  67.6244624  17.4161160
  65.9290602  68.5094507  17.0521652  66.8218424  67.3498304  17.4384415
  64.7541094  36.9206023  71.2855530  65.3533459  37.2745371  70.6283760
  64.8853588  37.4766445  72.0535517  -0.0868461  81.9159396   9.0629685
   0.6795027  82.3470361   8.6846935  -0.2456138  82.3850925   9.8820603
  26.4650156  47.2496409   4.9102032  26.6322806  47.7850182   5.6858456
  27.2896006  47.2675790   4.4244301  90.4844189  11.2315774  80.6039906
  90.7069111  11.4757419  81.5023804  91.2900162  11.3802385  80.1088715
  58.0012273  82.7421666  79.1050100  57.8175401  83.1497980  78.2586479
  58.9489221  82.8257609  79.2104626  77.4663258  12.3719025  27.9089594
  78.1429815  11.8139219  27.5255156  77.3940849  12.0723903  28.8152170
  37.3671626  90.4184592  78.7897396  37.1212052  90.2481664  79.6989918
  37.6914357  91.3190485  78.7939882   0.2974464  16.8478191  67.8857422
   0.3445675  15.9436679  68.1964207   1.0938884  17.2585225  68.2222557
  31.7631533  43.5933597   3.3399212  32.4956229  43.0987794   2.9723560
  31.7133238  43.3056386   4.2514908  93.4579849  38.8539076  90.9258842
  93.9627361  38.3149314  91.5349388  93.6949635  39.7539353  91.1495304
  78.9965582  12.1089804  75.7939863  78.9763594  12.9427385  76.2637472
  79.8614550  12.0856547  75.3845406  78.7767076  30.6189370  72.7541542
  78.5770178  31.5039968  72.4491549  77.9718590  30.1247096  72.5986147
  69.7031689   6.5772569  29.7813654  69.4601679   5.6578887  29.6720815
  69.0681839   6.9196802  30.4104710 105.8703041  30.9252477  48.9293051
 105.4166698  31.1238480  49.7484541 106.5754318  31.5709352  48.8833761
  76.6366768  22.3148513  89.5199490  76.0977840  22.5510192  88.7649345
  77.1204758  23.1140804  89.7282887  98.3621025  52.4823761  45.5748796
  98.0607128  52.0362997  44.7834206  98.3423901  51.8068743  46.2527752
  68.7384843  88.3289445  85.9399700  69.5154332  88.0742992  86.4377022
  68.2480191  87.5145674  85.8283234  54.3188905 102.2041524  68.8259125
  53.3862256 102.3659775  68.6838531  54.5753621 101.6311992  68.1032944
 108.2781601  45.9182215  61.4034700 108.5997486  46.2254429  62.2510719
 107.8494453  45.0847387  61.5977526   4.4907810   6.5729785  56.2829351
   4.8336364   7.1466035  55.5976343   3.7227203   6.1603808  55.8878613
 106.6870404  61.1084874   5.0664341 107.5203276  61.5590913   5.2036488
 106.6116811  61.0286154   4.1155541  16.0987712  38.6460304  70.5086899
  16.4514877  39.5313311  70.5985069  15.1794769  38.7769008  70.2763176
  79.6244764  61.8477106  81.0609055  79.3836021  60.9574652  81.3171673
  80.5715656  61.8105030  80.9272289  38.3170652 104.3520538  91.3666725
  37.3968553 104.2766238  91.6191673  38.7122726 104.8834825  92.0577717
  60.0066518  97.7799416  65.4143000  60.4647016  96.9399274  65.4426575
  59.6175717  97.8700716  66.2841988   6.4950992  26.7731810  60.5401802
   5.7658149  26.1542225  60.5045414   6.2215187  27.4289918  61.1815071
   5.5273154  71.7714341   1.4717114   4.7651961  72.2571082   1.1562454
   5.2157690  70.8711905   1.5651428  17.0566513  31.5938663  88.2814693
  16.3373329  31.5869284  87.6499844  17.6772167  30.9475350  87.9447365
  77.9552220 105.9649841  78.1390572  78.2281732 105.3976435  77.4180508
  78.0632161 105.4255578  78.9223766  85.6615925  30.1034522  67.9841900
  85.2862740  30.9839988  67.9867172  85.4087734  29.7329021  68.8297701
  60.8271551  22.3422933  80.8227921  60.4202557  22.2732162  81.6864395
  61.0012054  21.4365053  80.5668926  66.3805199  27.8200245  80.5163288
  66.2363577  28.7632942  80.5917645  66.4758873  27.5192833  81.4200401
  81.9651318  38.2494831  64.7502995  81.8860912  38.6156392  63.8694382
  82.8408527  38.5065436  65.0388479  25.1439475 100.8254505  71.5540266
  25.8599900 100.1940537  71.6237068  25.5595445 101.6239441  71.2285709
  85.5921459  28.1898785  79.1440392  85.7899952  28.0950212  78.2123232
  84.6367645  28.1541038  79.1908646  31.8490981 102.6254887  66.5944338
  30.9764051 102.9164526  66.3299084  31.7714500 101.6745449  66.6712999
  76.3633753  88.6458118   5.6934178  76.7026997  88.3088191   4.8642456
  75.6309820  88.0671055   5.9053909  20.3039935  89.0024931   7.4683964
  19.8409846  89.0921528   8.3013546  19.6616080  89.2624600   6.8081009
   3.8019611  47.6614618  70.0957251   3.2774879  47.6471138  70.8963203
   3.5407020  46.8705845  69.6240377  90.6797218  51.4736509  65.3022099
  90.5744267  51.0922098  64.4306326  89.9602222  51.1039877  65.8139610
  99.1676998  46.1764383  91.4714050 100.0197029  46.3981152  91.0956764
  99.0840244  45.2327013  91.3350391  61.0672998  87.6363290  72.4322462
  61.6015195  87.7463580  73.2188368  60.6880330  88.5014308  72.2773552
  12.2332385  42.3768301   6.1499989  11.6979411  43.1703408   6.1557209
  12.9064372  42.5372810   6.8112766 101.5038681  14.9879909  80.6802368
 101.9594193  14.1462731  80.6951237 100.6555653  14.7942019  80.2814198
   5.2328636  20.6028724  57.3937464   5.4846145  20.5537677  56.4715528
   5.7583667  21.3204122  57.7476072  47.1928980  68.4451373   2.2967064
  47.1744635  68.0351896   3.1614792  48.1167414  68.4348316   2.0464050
  84.4708347  21.7038393  79.8897743  83.5345745  21.7287278  80.0873089
  84.7918892  22.5696611  80.1417828  82.3773479  42.2028542  60.8406258
  82.7972221  42.5334692  60.0465012  81.4638996  42.4775600  60.7607222
  18.9920806 105.6783655  82.5715923  19.5425128 105.8322893  83.3394146
  19.6095561 105.4549167  81.8751526  81.8127823  10.3906715  68.7870932
  81.9581985  10.3345549  67.8426695  81.1180878  11.0419798  68.8841820
  74.4610453   6.6057563  64.7938347  74.9265909   7.0113790  64.0624142
  74.0895271   5.8038908  64.4261169  89.8339558  13.6306465  45.0061369
  89.7981167  12.6745045  44.9789429  90.6623936  13.8514733  44.5805216
  64.1957378   6.9804311  81.2327290  64.5345259   7.8034449  81.5850163
  63.3472967   6.8676805  81.6613007  95.5318356   3.2124382  64.8150063
  94.7495651   3.1758475  65.3654242  95.5283737   2.3823443  64.3383884
 102.8965187  14.5543647  50.4315710 102.4245262  14.7678673  51.2364817
 103.8007736  14.4164467  50.7135725  94.3492413  22.7604508  49.1148853
  93.9958191  21.8720961  49.0685129  94.9583721  22.7376628  49.8529100
  92.8810310  20.5672622  49.2396927  92.0117474  20.4120398  49.6091413
  93.1602859  19.7107077  48.9163351  90.2769661  41.9210386  69.5706367
  90.0406170  42.8264332  69.3690681  89.5488644  41.4017773  69.2293787
   9.5456316  78.2273967  10.5651009   9.4208052  78.2501299   9.6163475
  10.3188708  78.7704952  10.7180321  92.3065090  21.0216618  82.8870869
  93.1289291  21.0334563  82.3974705  91.6499805  21.3245630  82.2598267
 108.4815121   8.5009849  71.0147715 108.1796741   7.6655966  70.6580400
 107.8205395   8.7361711  71.6659498  99.2848301  31.8306708  56.3994884
  98.7206650  32.6020908  56.3460255  98.8168716  31.2315536  56.9811296
  46.6951417  86.8535436  78.4728432  47.6064729  86.9637025  78.2016039
  46.7065953  87.0047260  79.4179583  19.8966219  69.6910639  18.6468517
  20.7691863  69.3979294  18.9094078  19.7705271  69.3168242  17.7749073
  46.5018415  98.8512707  85.7810879  45.6970739  98.7992246  85.2654552
  46.2410592  98.5772741  86.6603756  85.6210423  19.0442812  90.2909946
  85.8354092  19.9688601  90.1667690  84.6773052  19.0365899  90.4507351
   5.1699401   7.8002739  54.0306902   5.7682468   8.4523827  53.6659718
   4.3161251   8.0254138  53.6611843  91.5294838  26.9065118  62.8118849
  90.6647015  26.5794778  62.5640249  91.4414024  27.8593254  62.7869701
  41.0247612  11.8821251  54.5469093  41.5242720  12.6242590  54.8874283
  40.9665203  12.0444226  53.6053658   8.4664013  10.0682306  53.6757040
   7.9122211   9.8091620  52.9395008   8.7963058  10.9337246  53.4342098
 100.4515457   4.5102429  49.6286488  99.9659252   4.3828663  48.8136768
 100.2977085   5.4266405  49.8583984  87.3739815  32.8918052  63.6744356
  86.5880013  32.3599625  63.5494757  87.5385571  32.8582525  64.6167850
  79.9723386  73.1632114  65.8870840  79.0495824  72.9464222  65.7538128
  80.0529431  73.2971287  66.8314362  86.9709301  51.7723989  40.7798243
  87.0640945  51.5782690  39.8471594  86.0849380  52.1248341  40.8637762
  97.3111725  22.2710085  13.2900238  96.8232250  21.6190195  12.7869844
  98.1738186  22.2964787  12.8759909  72.4124097  93.5534192  76.4260530
  71.6305398  93.3295203  76.9308138  72.7918862  94.2993844  76.8905544
 112.1253967  17.1524835  38.8940859 112.4293804  17.2502768  39.7964478
 111.7995739  18.0203867  38.6557221  91.0357761  35.2447343  88.0108929
  91.2918186  35.6230140  87.1697235  90.4292011  34.5404959  87.7821159
 106.2146950  28.5517430  54.5978832 106.9821739  27.9887104  54.4968557
 105.4716110  27.9813051  54.4012737 100.1809597  26.0420847  77.9328346
 100.9548473  26.4777732  77.5757599 100.4071140  25.1119900  77.9301739
  39.3780997  36.5777845   1.0777962  38.7585452  35.9434159   0.7173168
  39.3661215  37.3047061   0.4551613  11.1733677  20.4824162  87.3065472
  10.3808071  20.3061104  87.8134918  10.9006359  20.3853941  86.3941669
  80.9665489  41.0410452  84.4331932  81.6694641  41.3886595  84.9820995
  80.3289795  40.6894922  85.0546074  57.8460740  84.0580202  84.9750996
  57.7403592  84.9959612  85.1342392  58.5865258  83.8036109  85.5257702
  72.8516865   8.6248714  92.1713734  73.4879971   8.5349923  92.8807926
  72.5209904   7.7374285  92.0323944  43.5317233  61.9956840   0.3294098
  42.5769999  62.0639790   0.3378307  43.7389758  61.4432265   1.0831177
  90.4107761   4.5808759  83.8396740  91.3307858   4.4010112  83.6460972
  90.3476906   5.5359900  83.8367081  81.4850140  27.3269033  75.4490376
  81.1499786  27.0573068  74.5938778  80.9663391  28.0983949  75.6771088
  47.3985291  17.9462183  78.6055946  47.0147085  17.0768142  78.4913635
  47.2138882  18.3995152  77.7829981  57.6605558  19.8516345  78.8311434
  57.4011946  20.6275868  79.3279934  58.5249233  20.0687146  78.4818983
 110.1626778  29.1610551  66.2514639 109.8702908  29.0894151  67.1600962
 109.3534184  29.2096806  65.7425785  10.9047415  95.8598263  16.9322216
  10.1756384  95.6643994  16.3436234  10.7060435  95.3702433  17.7303898
  88.2236385  18.8316321  91.2296295  87.3483753  18.8409531  90.8422470
  88.1301403  19.3249226  92.0445824  69.3460941   0.4852953  66.8471861
  69.8377228  -0.2954753  66.5923786  68.4713173   0.3465610  66.4842129
  95.9634686   2.2716032  61.3134050  96.5281391   2.7738562  60.7259321
  96.0318661   1.3701911  60.9987450  92.7814484  29.3698859  48.6937857
  92.9365253  29.5918417  49.6118879  92.8583241  30.2034497  48.2295704
  91.1101151   4.9974057  74.1743898  91.5422726   5.8152068  73.9280653
  90.5026436   5.2477413  74.8704767  88.5341167  72.5916147  51.0317278
  88.2988548  73.3369017  51.5843964  89.0518856  72.0240402  51.6026926
  69.1868066  99.0947998  55.3633642  69.4804811  98.2464189  55.0313377
  68.3091878  99.2044908  54.9973392  53.5663366  93.1823421  79.9977493
  53.1167840  93.4482980  80.7998753  52.8974580  93.2458950  79.3159914
 113.2959414  78.0771477   8.7741863 113.1932259  78.8833888   8.2685578
 112.4333764  77.9250438   9.1602909  24.6875861  65.9926267   0.5961716
  24.6730902  66.7501230   0.0111782  25.2949526  65.3805990   0.1805317
  23.3721973  27.4647760  52.7267790  23.6769249  27.3543906  53.6274385
  24.1695549  27.6254749  52.2221613  53.8548230  85.5235267  78.9854288
  54.3851899  84.8764921  79.4505072  53.2648706  85.8739639  79.6527958
  86.9487572   2.6217097  82.5209522  87.4431896   2.0336431  81.9500351
  86.0316563   2.4383610  82.3171329  69.7775221  10.9302306  90.5183697
  70.0055408  11.8351316  90.7314301  70.1152658  10.4186761  91.2535381
  88.1683636   2.7038902  43.3496189  88.5387897   3.5836759  43.4202957
  88.8652611   2.1250552  43.6586809  81.4339161  47.5396872  90.9962845
  82.2091770  47.7240801  91.5265560  80.9439659  48.3619881  90.9943008
  21.4895107  68.1168222  53.4221363  20.8660652  68.8373470  53.3304882
  21.2437011  67.4984264  52.7341032  56.6165685 101.5916581  55.1296425
  57.1533155 101.3927448  55.8968210  56.0013341 102.2587130  55.4342031
   8.6851455  45.6593847  66.8907690   8.9791824  44.7534132  66.9855356
   8.4429790  45.9265900  67.7774429  81.8474007  70.0418329  54.1573429
  81.6915607  70.9804249  54.0525341  81.3534641  69.6360064  53.4449053
 103.7661648   8.1592476  43.1644917 104.3002510   7.9859287  43.9396954
 104.3725967   8.0651909  42.4299049 105.9902191   8.6403680  41.4438772
 106.7866611   8.1282067  41.5839243 106.2908745   9.4349468  41.0028744
  95.3147793   9.9014491  71.2748384  96.0889339  10.2111578  71.7449474
  95.4621029  10.1696503  70.3678656  21.6574813  44.2790794  63.5106993
  21.5243961  45.1218033  63.9446735  21.5615131  43.6320162  64.2095041
  67.9638910  17.7587795  53.5950089  68.5958719  17.4367106  54.2377377
  67.1338320  17.7909577  54.0706110   5.4097225  37.2125673  74.1879177
   4.5566990  37.2809172  73.7590837   5.2316143  37.4077225  75.1079273
   6.4007427  47.1882820  69.6413803   5.4604103  47.3322678  69.5351410
   6.7924549  47.5771809  68.8593674 112.3764801  58.7053776  39.8328304
 113.0616760  58.3535337  39.2645478 112.5575924  59.6444178  39.8732352
  44.0499543  92.1089531  50.4936886  44.3484830  93.0127240  50.5952215
  44.8480176  91.6118265  50.3142595 110.5544281  25.0350499  77.1342325
 110.6125450  25.6729865  77.8454924 111.4642715  24.8638296  76.8911314
  17.1593715  57.1588469  91.5695190  17.9719497  57.2808266  92.0605087
  16.5666629  57.8247738  91.9180584   9.8716022  22.5430918  53.0227947
   9.5582058  22.6103520  53.9247322   9.3178703  23.1494999  52.5309801
  85.3727341  11.6515625  83.2763863  85.4579926  10.7253098  83.5022545
  84.4894886  11.8870354  83.5603809  96.5242958  35.3480029  90.0039291
  96.2639904  34.7077990  90.6662083  96.7477608  36.1328363  90.5042648
 106.0310650  17.4906158  50.9500551 106.2120247  18.1464231  51.6234064
 106.3779163  16.6747379  51.3109827  96.4869690  55.3240347  67.0396280
  95.6063461  55.0041628  66.8436289  96.5805435  55.2040911  67.9846621
  95.4241657  39.2241502  85.8193111  95.4976273  40.1654100  85.6616402
  94.6945572  38.9448714  85.2662182 113.0807304  14.5634556  69.3177557
 112.2927284  14.1832829  68.9294767 112.7744198  14.9772358  70.1247215
 111.3639832  22.1546578  52.2506380 111.4869022  21.2459207  51.9761944
 110.8361721  22.0950580  53.0469418 107.1455193  19.0494132  42.0386744
 106.4007759  18.5129583  41.7670059 107.9026985  18.6352646  41.6246748
   1.4981033  76.3680887  61.0273409   2.3837329  76.6701746  60.8257389
   1.0861827  77.1111107  61.4683247 111.5291500  19.4294524  79.2626667
 111.0927582  19.9160492  78.5633707 110.8749104  18.7963462  79.5582581
  64.2700242 102.2212634  63.0441856  64.7732209 103.0337492  62.9904318
  63.6252259 102.3839814  63.7326574   6.0395099  47.5624466  33.4267902
   5.8875228  48.2434797  32.7715611   6.2586834  48.0428457  34.2251682
  81.1615562  23.9160848  44.2174292  80.3829384  24.4707394  44.2658138
  81.7279720  24.3533349  43.5816431  82.4568748  24.6874857  53.6708546
  82.6360130  25.4482889  54.2234135  82.7974224  23.9443111  54.1688013
  97.4759579  34.7268510  79.1017008  98.2584000  35.2767563  79.0614843
  97.8138065  33.8321328  79.1413498 106.3042355  32.2121882  56.5738392
 105.9326458  31.6554213  57.2580576 106.3928795  33.0714798  56.9861364
  12.7424957  39.4420362  45.7336140  12.2430755  39.6555090  44.9454212
  12.0801593  39.1809559  46.3734436  16.6555454  17.9436338  90.6206226
  17.3808052  17.9299784  91.2451553  16.4466049  18.8719261  90.5164719
  94.7908878  62.8766537  76.5106821  95.7135487  62.6644230  76.6516876
  94.3582821  62.6165009  77.3239470  35.5906680  80.7795961  14.1400826
  36.1270525  81.2589796  14.7715199  35.5023673  81.3776667  13.3979618
 109.0773106   5.4320234  47.7481794 109.4901371   5.2640146  48.5952806
 108.1522560   5.2298093  47.8882504 107.0360374  70.8684778  70.7653809
 107.7104664  71.3226604  71.2704515 107.4594593  70.6614161  69.9322701
   3.3819152  35.0187540  45.9881353   3.9695407  34.8329258  46.7205286
   2.7607967  34.2904425  45.9886599   4.2208530  28.8731146  60.6906700
   3.8236858  28.1487370  61.1741686   3.6766388  28.9660692  59.9087286
  90.4160976  22.5806975  74.7724152  90.2831078  22.9773784  73.9114857
  90.6694889  23.3114958  75.3362894  42.6886465  88.0266078   7.8228104
  42.4348738  87.1041377   7.8524506  42.1018698  88.4157236   7.1743309
  84.3535519   3.3005610  52.2608280  84.7055721   4.1467261  51.9845724
  83.9755630   3.4686822  53.1240177  21.6049292  96.5790112  33.7345707
  20.6900408  96.6090138  34.0144169  22.0073893  95.9211714  34.3015873
   1.0641910   7.8046012  90.4693317   0.2913906   8.1587148  90.0293064
   0.8947898   6.8645537  90.5313492 109.7573757  38.9517260  42.9417133
 110.6100273  39.2326093  43.2738590 109.6001530  38.1090665  43.3676720
  91.3164616  23.7021041  80.7357788  90.6245327  24.1780972  80.2765465
  91.2582684  22.8088284  80.3968048 102.0868206  27.0548749  91.0329819
 102.5395584  27.2623801  91.8504143 101.1582565  27.0609236  91.2652683
  88.8020802  19.5390761  77.7529144  88.7419796  20.4869485  77.8718996
  87.9301071  19.2792487  77.4556017  57.2677945  81.0937834  56.7178202
  57.1488141  81.3322187  55.7984591  56.7171525  80.3200698  56.8377876
  35.3440192  92.3947675   2.2724449  34.7011092  92.8406413   1.7210018
  34.8903658  91.6114934   2.5837624  99.5470810  62.1598721  44.1442251
 100.2516747  61.5555429  44.3778467  99.2838383  62.5538445  44.9759245
   9.1632034  13.1774914  68.4064722   9.7078659  12.4791932  68.7697220
   9.4680549  13.2742798  67.5042963  11.5223982  82.2284348   3.7884056
  10.9763815  81.5250380   3.4372151  11.3694289  82.2015340   4.7329247
  47.2508382 102.2827763  67.4739885  47.7908658 102.5191150  66.7198372
  47.2255181 103.0763901  68.0085611  59.8689082  67.3955293   6.3254177
  60.2953246  67.9720278   5.6913387  60.0685217  67.7860088   7.1762478
  85.0892544  43.3696699  62.8248978  84.4237518  43.9952946  63.1111383
  85.5531979  43.1297398  63.6270332 102.7037144   1.2435453  35.2105069
 102.4544525   0.7375303  35.9838438 101.9371128   1.7844692  35.0209045
   8.9118816  18.1459773  65.6663609   9.6528675  17.8107321  65.1616144
   8.1642009  18.0697703  65.0735664  94.3311405  30.9367156  62.9383135
  94.6642971  31.0157394  62.0444441  95.1066971  30.7499480  63.4673357
 112.9311085  31.3633609  59.9020147 112.2355366  31.9860888  60.1132488
 113.7417698  31.8417978  60.0756550  37.2442629  52.8227459   4.0658867
  37.8017714  53.3002862   4.6801960  37.2062304  51.9336234   4.4183743
  85.7202530  43.1686544  71.9948721  86.2813377  42.8019571  71.3115358
  85.5603790  42.4374199  72.5915003  96.2381649  24.5710301  64.9296618
  97.1372986  24.6245074  65.2536011  95.9010220  23.7521219  65.2929115
  60.5979871  96.0528744  54.1175127  61.2463903  96.0669351  54.8214960
  59.7639608  96.2194861  54.5566988  93.6998081  16.9965327  59.8909712
  93.9061451  16.8056929  60.8059788  93.9791489  17.9035795  59.7666073
  94.7307491  19.5992637  76.8929195  93.8106918  19.7059870  77.1344376
  94.9266815  18.6842573  77.0944214   3.9683391   4.2676961  69.4263840
   3.4236957   3.6356440  68.9572334   4.8336746   3.8598952  69.4598627
 110.5282497  50.3305721  67.8342867 110.8107567  50.0487041  66.9642448
 109.9680996  51.0892057  67.6701260  80.1617622  14.3183160  45.3195429
  79.4983578  14.4642174  45.9939528  80.1484776  15.1179290  44.7935438
  18.5446788  12.9348695  54.0492296  17.9531147  12.9137993  53.2970047
  17.9690887  13.0641603  54.8030329 111.4922905  47.6739407  56.3562632
 110.6249809  47.3041344  56.1912203 111.6079235  47.5999355  57.3035669
  95.1108646  31.0124111  60.2865219  95.1527023  31.9320035  60.0241613
  95.9902859  30.6746817  60.1168394 111.3984299  25.1311994  53.1919289
 111.5451813  24.2679143  52.8053617 112.2317219  25.3521514  53.6079121
   9.1557552  51.2167454  67.5932026   8.5185577  50.7148409  67.0849609
   8.7228347  51.3733196  68.4324265  21.7011787  17.3645139  62.5148964
  21.6939880  16.5173578  62.9604340  21.8756820  17.9991651  63.2098770
 105.1210403  35.0870109  25.9588408 104.8251629  35.9077549  25.5650520
 104.3238163  34.6868634  26.3060355  17.4290992   1.3265142  79.1800261
  18.3231498   1.2731917  79.5177364  17.5161602   1.1514044  78.2430124
   2.3862125  18.8206744  47.0809603   3.0200435  19.2578232  47.6496363
   1.7571498  19.5051169  46.8528080 108.3730030  16.2584817  33.7202787
 108.0249023  17.1100807  33.4560132 108.2699299  15.7065666  32.9450393
  11.2913465  94.1093374  59.1645813  11.7342424  93.6760176  59.8941755
  10.5728244  93.5195685  58.9362478  27.4272300  49.9488449  65.9501219
  27.9085495  50.5421066  66.5268373  26.5730430  50.3656626  65.8367109
   2.4617435  49.4680643  45.2816725   3.0751659  50.1533318  45.0164318
   2.9628994  48.9179039  45.8836699  80.9421444  27.5750399  92.4588299
  80.2945614  26.9512248  92.1306324  81.6596699  27.5301743  91.8268585
  32.9197837  50.6078243  56.8192434  33.0433513  50.8853531  55.9115314
  33.6949588  50.9332895  57.2768545  35.6645110  57.1775920   4.4098198
  35.6048205  58.1244062   4.2824948  35.9865382  57.0762051   5.3055012
  88.4811592  40.2404785  65.4640484  88.7053204  39.5064116  64.8920965
  89.3139935  40.6859064  65.6196213 101.1069107  26.8489075  65.0782061
 100.5167866  26.8349600  65.8317232 100.6907368  27.4487209  64.4591284
  27.4576380  96.7719014  16.6313946  28.3473399  97.1248944  16.6232979
  27.1728804  96.8192227  15.7187569  27.5515033  37.0286369  27.7174020
  27.7230407  37.0674658  26.7764997  26.9053985  36.3290906  27.8144002
  14.1207030  61.9450463   3.4584725  13.4312155  61.8573470   4.1166126
  14.6183112  61.1298926   3.5228169  82.3370075  45.2286053  68.0609035
  82.0656109  44.3177319  67.9473829  83.2534122  45.1734877  68.3317995
  98.7418365  20.4110479  57.8464317  98.4321690  20.0984621  58.6965036
  99.4424152  21.0277748  58.0587196  82.3534298  21.6982436  41.8340778
  82.3868561  21.8502188  40.8896112  83.2647133  21.7636681  42.1195984
 102.7035332  31.7214608  50.9967327 102.4065399  31.6086912  50.0937843
 101.9499683  31.4686465  51.5300703  88.1043767 102.0700348  55.8911800
  87.2589635 102.0805318  56.3399458  88.2542085 101.1475814  55.6841516
  12.0050766  45.7727432  57.2492504  11.4088680  45.8901024  57.9888391
  11.8689300  44.8663378  56.9733429 112.3722649  32.8387952  55.2522230
 112.5317764  32.5886822  54.3421507 113.2413006  32.8502131  55.6533194
   2.4491932  55.0734520  51.3421154   1.5175296  55.2256727  51.1838293
   2.8598644  55.1899672  50.4853773  82.2445297  43.5334063  63.2803249
  81.6445541  42.8565502  63.5935783  82.6329041  43.1613970  62.4884892
  68.9717197  19.0405190  56.8395424  69.8656273  19.0199339  56.4978743
  68.6149454  18.1775796  56.6291094   2.0541717  42.1223688  51.1720943
   2.2269680  41.3941097  50.5754280   2.0156528  42.8925943  50.6050825
  22.6692821  55.4549789  48.8030577  23.2252933  54.8480082  49.2916059
  23.0609848  55.4890442  47.9303312  71.9821119  93.4258068  44.3251419
  72.1159124  94.3732262  44.3520737  72.3952722  93.1487144  43.5073757
  74.1330767  68.0957842  47.8637409  74.9870729  67.9388523  48.2665968
  73.6815834  68.6751986  48.4774685  96.3135338  37.1756363  61.1789942
  96.1152554  36.3122511  60.8163881  96.5681648  37.7012134  60.4205990
   0.9715702  52.5520611  78.1721592   0.5494262  53.3015013  77.7521992
   1.7354061  52.3697186  77.6248646 112.2407436  43.6298132  66.3344049
 111.4270020  43.2262993  66.6364336 112.4669743  44.2563057  67.0218372
  82.1686745  45.6777287  80.4189396  81.8540096  44.7994518  80.2048302
  81.6177654  46.2628889  79.8990202  10.6849338  20.1893997  73.0562067
  10.0661041  19.4766116  73.2150030  10.2592422  20.9629583  73.4258413
  64.9674606  26.8869114  50.8970261  64.5909405  27.6936793  51.2485838
  65.0760031  26.3204956  51.6609812  89.6054459  26.5298128  50.2351236
  88.9988041  27.1030760  50.7037258  89.7745132  26.9836879  49.4095039
  84.5427990  70.0699043  54.3228197  84.6077824  69.7089767  53.4386587
  83.6200047  69.9680376  54.5558739 103.3477497   2.1179126  45.0016022
 103.5080338   1.4806142  45.6975842 103.4271622   1.6134700  44.1919947
  95.8751297  64.7642183  60.9937620  96.2098503  63.8674784  61.0007620
  95.4889488  64.8689461  60.1242065  97.7941418  33.3710885  47.7404070
  96.9482327  33.0765367  48.0779028  97.6519775  33.4803772  46.8001509
  60.3920030  99.1925997  87.6887512  60.8328389  98.6713309  88.3596992
  60.6837606 100.0894875  87.8521633  37.5297263  78.1314499  12.8693592
  37.0964911  78.9477284  13.1188309  36.9373419  77.7305944  12.2332585
  39.1304018  84.0328724   2.9777729  39.9495604  84.5280106   2.9836762
  38.6525824  84.3693979   2.2197067  14.5996906  55.7828283  58.6659288
  13.7918426  55.6693935  58.1651735  15.1212741  55.0076485  58.4579086
  13.3250095  82.8413677  49.5473909  13.0213882  81.9341564  49.5790768
  12.6325466  83.3409405  49.9800062  32.9003669  97.3532295  60.1830244
  32.5812389  96.9463921  59.3774986  32.9107334  96.6414928  60.8229923
   7.2512390  55.0062513  66.8922997   7.4834587  55.9064293  66.6643047
   6.9322158  54.6265125  66.0736084  33.3121112   8.8754064   5.6397640
  33.7180093   8.1546957   6.1214745  33.6706975   8.8041813   4.7551262
  89.0079403  60.3295612  80.8241177  88.6242390  61.0820103  81.2744713
  88.3395004  59.6471882  80.8856487  92.2801685  65.2565622  88.8658714
  93.1654263  64.8959446  88.8158226  92.1732330  65.7432175  88.0485821
  21.6579582  46.2987900  73.7002182  20.9419300  46.8702793  73.9776039
  21.2522174  45.4375648  73.6007214  68.7433338  22.7789974  76.8453121
  68.8029671  23.7306762  76.9288683  69.4147491  22.4438500  77.4395370
  92.1975136  49.7233772  57.5610924  91.4204597  49.2731857  57.2298145
  92.9285908  49.1642857  57.2980928  40.8302596  98.8442976   7.5016606
  40.4522231  99.7230895   7.4694073  40.4014876  98.4263737   8.2484638
  10.2102138  25.5079031  72.4381971   9.7483112  24.6695518  72.4312687
   9.9061061  25.9554458  71.6486073 105.1633072  51.3993740  83.2335091
 104.3724155  51.9358778  83.1797409 105.7494354  51.7699766  82.5737000
 107.3450279  46.6896534  87.3749161 107.9890728  47.0719671  87.9709721
 107.2935581  45.7701063  87.6357079  83.3655453   7.5613207  39.9832225
  84.1389275   7.0421231  39.7628832  83.4084702   7.6633310  40.9340048
  96.9514751  20.9116220  71.4669657  96.3611317  20.4164839  70.8990192
  96.3768578  21.3097405  72.1208334  94.3699169  13.3193684  45.8189058
  94.6058655  12.8301442  45.0307322  93.7593365  12.7463472  46.2826729
  19.0897132  49.5813704  40.5398035  19.3599369  48.6878777  40.3279448
  19.3117763  49.6857405  41.4650202  75.8874083  24.0875006  69.6413040
  76.7020750  24.2270589  69.1585302  75.1974297  24.2343426  68.9943123
  88.6255264  32.0185733  53.9164829  88.9568996  31.9309449  54.8102093
  87.7445507  32.3777580  54.0218258  81.4938641  37.0723486  69.7375107
  80.7813931  37.6178336  70.0707579  81.8685532  37.5808358  69.0182877
  98.6444569  34.2462993  72.4109411  99.1550159  33.4375668  72.3721075
  97.9039860  34.0350151  72.9795313  98.8131046  15.6662035  61.7581701
  99.6717548  15.2817142  61.5817642  98.9690590  16.2823868  62.4738693
  97.6589012  14.0713227  10.4581892  97.3040009  13.6375308   9.6822387
  96.9503117  14.0307450  11.1004317 112.6139164   5.6601387  43.6091566
 111.9516754   5.3758907  44.2391396 112.5989342   4.9891025  42.9267216
 102.9219532  20.2850676  72.8782463 102.5831509  19.5854127  73.4367514
 103.4776592  19.8354650  72.2416306  65.2895021  95.6292606  59.8244667
  65.1674985  95.7927561  58.8892603  65.4223012  96.4978493  60.2041388
  16.5873958  41.7691517  87.5039959  16.4945652  42.6398993  87.8905296
  17.5231315  41.5776539  87.5670147  80.3470898  20.8352852  78.2877827
  79.6054792  21.4345455  78.3722734  80.3771305  20.6213641  77.3552799
  94.5198822  18.6983502  84.9928093  94.6236038  17.8279448  84.6082687
  95.2579880  19.2015851  84.6490097  67.3901939  28.3569837  60.4850912
  67.4083900  28.0255127  61.3828802  66.4700508  28.5674334  60.3260756
 103.0018520  36.2403131  58.0856705 102.1839046  36.2998843  58.5792685
 102.9067039  35.4464960  57.5593328 109.1434765  18.7469673  17.4137318
 109.1213608  19.5936131  16.9677126 109.3890953  18.1228352  16.7308235
   3.0642273  34.8786759  76.7888117   3.4414531  34.0170312  76.6113234
   3.3014537  35.0613260  77.6979876 111.6437912  50.8215523  71.1459446
 111.4983654  50.1266289  71.7879391 110.7995796  50.9217691  70.7060766
 104.1730404  36.8756986  47.9139614 105.0377750  36.9143224  47.5053501
 104.3439865  36.9954944  48.8481236 108.2961464  26.9112682  61.4522314
 108.8774681  27.4333906  62.0051193 107.4445820  26.9603348  61.8865919
  92.7314281  45.9776831  57.7118349  91.9293404  46.1797523  58.1935596
  93.0204773  46.8210649  57.3634291   7.1917774  36.6726232  77.5397396
   7.1510460  35.7920861  77.9128742   8.1040718  36.7760968  77.2691011
  93.7320232  12.7545369  64.0498972  93.8764477  13.1756341  63.2025146
  94.3967819  13.1360054  64.6233130  19.6522380  27.8134751  88.6187744
  19.8962642  27.1956825  87.9295635  20.0430729  27.4516678  89.4141197
  36.3569834  88.7152154  16.3628018  36.4910319  87.9288967  15.8336842
  37.0025732  89.3396003  16.0317528  97.6524639   8.4341109  38.1132531
  98.1946754   7.9124707  37.5215387  98.0956173   9.2812574  38.1599712
  97.3168229 106.8537132  64.6070671  97.5099515 105.9166177  64.5790529
  96.3658380 106.8994164  64.7058916  73.5219240  36.4516616  86.5276051
  73.6493063  36.5739083  85.5868340  74.3428802  36.7475939  86.9209099
  81.4179993  69.6674490  88.0459023  81.5673447  69.7641039  87.1053791
  82.2182178  70.0016832  88.4510803  53.4274867  89.6749647  32.7876579
  53.7229636  89.6448524  31.8777096  53.5740950  90.5816491  33.0572140
 110.0630188  70.0074577  59.1460705 109.4637871  69.3302727  59.4600344
 109.6683216  70.8298016  59.4362402  83.0413914  24.5694542  19.0791357
  82.1122742  24.4672751  19.2853749  83.4715080  24.6245456  19.9324811
 109.0103626  31.0051084  91.3882256 108.4491634  31.7643332  91.2305450
 109.5870399  31.2776375  92.1019554  46.2832784  95.5077184  79.9340487
  45.9419107  95.8153105  79.0943575  47.1938657  95.8025921  79.9449015
  92.8291416  32.5215173  48.9226627  91.8932629  32.4200106  49.0960407
  92.9684258  33.4683943  48.9065456  36.4757063  69.7543342   5.9833157
  35.8354094  70.1365263   6.5834725  37.2233202  70.3510196   6.0189449
  87.5511265  30.4634166  92.0081043  87.7839851  30.3591514  92.9306793
  86.6890526  30.8791184  92.0241737  11.9066574  53.0000019  63.0584240
  11.3829948  52.7807951  63.8291073  12.7118351  53.3753824  63.4148216
  80.9275246  54.0235662  58.9729738  81.0946560  54.1787624  59.9026060
  81.6205692  53.4213686  58.7022877  31.4046241  42.0668793  48.7269020
  32.1113731  42.5361633  48.2836246  31.8523456  41.4284801  49.2820835
 108.2269955  23.3321524  71.7838955 108.3605480  23.0766225  70.8711529
 109.1043758  23.5397577  72.1053362  41.7277529  91.7200525  31.2728703
  42.6301291  92.0393045  31.2775814  41.6712668  91.1731441  30.4893315
  26.8938495  58.6224079  48.9901590  26.6123153  58.0197668  48.3018303
  26.7605831  59.4930744  48.6154509   7.3550369  28.5299397  52.5533009
   6.7552330  28.7339950  51.8357897   6.8134548  28.0701947  53.1948185
  82.4804783  26.1286306  26.7816949  83.1390667  26.6142702  26.2850499
  82.6094246  26.4084816  27.6879454  81.1300850  33.1431270  75.7691336
  81.1876583  33.2669473  74.8217249  81.8407154  32.5357747  75.9749269
  87.2299862   3.1995884  65.3537798  87.2983837   2.7988952  66.2203836
  87.4679756   4.1160360  65.4941845  10.8873274  82.6045067  13.8591301
  10.1489642  82.8764946  14.4041741  10.7964041  81.6541774  13.7895596
  12.2112277  69.3652029  20.2059471  11.9019988  69.7666461  19.3938839
  12.5535395  70.0968010  20.7195770 104.1664219   6.9395387  32.9361320
 104.5402241   7.0540714  32.0624113 103.5260391   6.2357169  32.8322983
  38.7217473 100.5155516  63.1627035  37.9573821 100.6456388  62.6014090
  39.0202569 101.4011026  63.3698845  42.8877356  97.5277693  12.8578293
  43.6406519  96.9457800  12.9609787  42.7039912  97.8409607  13.7434780
  93.6041641  22.3887706  62.9996490  93.5215855  21.6362906  62.4138260
  93.1474304  23.0969739  62.5457048  85.6540871  46.1413765  66.5006971
  86.3064957  46.8398714  66.5525532  85.2487946  46.2555265  65.6410837
 102.1432209  20.1075673  68.2982635 101.8981934  20.9101295  67.8377342
 102.3799133  20.3993535  69.1786432 108.8945770  66.2654924  70.5890322
 109.1619682  65.4278374  70.9672689 109.5607567  66.4532948  69.9278545
  88.9388561  14.3137562  83.2017136  88.3236980  14.0010548  83.8650608
  89.5022392  14.9304008  83.6692429  81.5508461   3.7198451  56.2725163
  81.5201855   4.6178234  55.9424734  80.6550407   3.5384771  56.5568924
  84.9673653  17.7386630  78.9646101  85.4475212  17.0091152  79.3563271
  84.0562820  17.4454951  78.9501190  72.8970051  38.6247802  89.4394779
  73.0834341  38.8601589  88.5305882  73.4443712  39.2154074  89.9569511
  37.6769783  72.8764439  43.4885263  36.7209484  72.8679085  43.5350609
  37.8753997  72.6126575  42.5900412  63.2405665  61.9007255   4.0414059
  63.2381060  61.2733127   4.7643006  62.3458197  61.8786116   3.7020218
  85.0193310  30.0135231  50.7104206  85.3850365  30.8939862  50.6251287
  84.2149162  30.1360917  51.2145281  77.4835205  50.9417152  64.8199606
  76.6435909  50.9247112  65.2787209  77.4919176  50.1344538  64.3056726
 112.3521614  20.5191660  69.5562363 112.7444458  20.4266381  70.4244471
 111.4200687  20.6535220  69.7276354  29.1863586  10.5136693  61.4240885
  28.6380722   9.9618638  61.9818687  30.0831272  10.2875781  61.6709185
  10.8515312  30.9483957  80.6288147  11.1173202  30.8954120  81.5468502
   9.9010994  31.0574508  80.6605434 108.1246185  43.7401342  67.3055029
 107.3859119  43.5820436  66.7176580 108.7273502  43.0169201  67.1325874
 104.9039936  14.7595239  67.2932196 105.2628994  15.6467545  67.2776127
 104.3991947  14.7196114  68.1055117  67.8473902  36.0708070  74.0482473
  67.3071432  36.7871046  73.7146568  67.4093103  35.2771854  73.7408733
  72.1570778  62.0010900  36.6457343  73.0716324  61.9242382  36.3738513
  72.2011614  62.3206568  37.5469351  94.5295953  94.2707003  47.6987123
  95.1347303  93.5414279  47.8336763  94.2264890  94.1666341  46.7967558
  78.6251357  77.7949078   8.9609539  78.8312342  77.8089626   8.0263054
  77.7750781  77.3578556   9.0122235   2.1290638  72.1554089  70.8081293
   1.8254520  71.3292551  71.1843252   1.6205265  72.8268623  71.2628508
   8.4824611  33.5157871  75.5227900   9.0804626  33.3305478  74.7986937
   8.9803745  34.0913010  76.1033869 100.2189064  60.2779055  68.4792519
  99.9950123  59.4385624  68.8812542 100.1948833  60.1065636  67.5378180
  32.3783209  98.8710148   5.2838623  33.0952647  98.2889063   5.5356037
  32.1436503  98.5929472   4.3985092  16.8960334  53.4798241  48.8891602
  17.3255207  52.8090811  49.4200754  17.1541740  53.2754898  47.9903603
 100.8847618  38.2880569  46.3727474 100.3040504  38.6791134  47.0254993
 100.5969906  38.6634851  45.5405998  88.9190674  46.6439295  77.7336550
  88.8588715  46.1459303  78.5488892  89.7925282  47.0348406  77.7557278
   3.4711315  47.3379183  80.8496094   3.8004543  47.6531982  81.6912651
   4.2558719  47.2199583  80.3143501 106.7748737  57.8356409  69.5390034
 107.1823215  58.5739946  69.0861702 106.6193581  57.1888447  68.8507462
   2.2390987  70.7950878  42.8925800   2.2761489  71.6542101  42.4721384
   1.3438465  70.4924011  42.7404642  15.7922985  10.6396139  34.6797252
  16.5751888  10.0943387  34.6022558  15.3881504  10.3629601  35.5021358
  68.0395651  60.0403452  82.8527546  68.2146215  59.8921633  83.7820721
  68.8474703  59.7773027  82.4119282 110.0087166  34.0268993  40.5413723
 110.8794785  34.0510368  40.1446152 110.1457691  33.6161256  41.3950205
  96.5669346  39.0707254  68.0959415  96.3290977  38.8357496  67.1990252
  96.2426758  39.9649096  68.2032728  87.9290867  36.7658305  82.2623062
  87.0148087  36.8317413  81.9866371  88.1551456  37.6486063  82.5552940
  91.7073345  52.6338005  81.2525845  91.1502266  52.4519825  82.0094204
  92.5568581  52.2588921  81.4849281  86.4995289  58.4631920  35.6092286
  86.4937878  58.1485319  36.5132141  85.8742714  57.8983927  35.1550484
  23.0296852  51.8533659  75.0485802  22.6562740  52.6513481  75.4227781
  22.7492954  51.8640089  74.1334295  24.6609260  27.1162224  79.4331360
  25.5849029  26.9493055  79.2470217  24.2195083  26.9812012  78.5945940
 106.1758041  27.4984717  58.4215069 106.6016483  26.6513729  58.5530758
 105.5939388  27.5937200  59.1755533  31.9461586  20.4186082  54.9008751
  32.7517749  20.1856756  55.3623486  31.9398548  21.3757849  54.8982239
   5.3036453  59.1464996  50.2649593   5.7438900  59.2810535  51.1041927
   4.3861057  59.0020895  50.4962540  20.1376917  76.1556108   6.6397583
  19.7196581  76.9678123   6.3537228  19.9477484  76.1055024   7.5765812
  89.9495029  25.0764847  38.0492234  90.8530235  25.1756001  38.3493090
  89.8068905  24.1302252  38.0271602  97.2004318  55.0340414  88.0616760
  96.3866711  54.8669004  87.5861931  97.7771473  55.4396152  87.4142647
  68.9605192   7.5533230   3.5544312  68.3813146   6.8609554   3.2360184
  68.5859636   8.3602554   3.2011616 105.6410122  73.6588240  51.2360477
 106.2287998  72.9070854  51.3109970 104.9238014  73.4631205  51.8389893
 108.0628014  38.4800935  21.2262797 108.6788845  37.8340054  21.5715837
 108.4840012  38.8130689  20.4338479  21.6052200  13.6849630  55.0775766
  20.6548549  13.6186957  55.1705456  21.8176796  14.5585525  55.4061079
  88.6220597 103.1455491  36.0344505  88.5983991 102.8402749  36.9413567
  89.0741491 103.9881790  36.0770917  27.8084853  73.3356221  24.9027645
  28.5824969  73.1665308  25.4399216  27.7536776  72.5804122  24.3171990
 108.4666157  19.9674785  45.7476234 108.8724613  20.4873085  45.0538683
 108.2750893  20.6000423  46.4400196 110.1920795  63.5974836  82.4464703
 109.5441437  63.3301306  83.0983353 109.6844006  63.7357998  81.6468716
  58.9910939  37.8209383  16.6949188  58.6625531  38.5722620  16.2011540
  59.7958902  37.5698263  16.2416279  95.4005909  79.3838882  47.2949028
  94.5943832  78.8836527  47.4214649  95.4452801  79.9627209  48.0559444
   5.1952221  24.0753031  63.4052134   5.2077819  23.5487866  64.2044973
   4.9356319  23.4614992  62.7181244 108.3671379  29.6309328  59.2764902
 109.0889645  29.8996377  58.7081623 107.9482269  28.9097047  58.8068390
  15.4618312  68.7134409  79.8463440  15.4970600  69.0117788  80.7551765
  16.1966278  69.1550970  79.4206238  97.6277065  82.8898144  84.8691940
  97.2089005  82.1375847  85.2875233  97.9750156  82.5439835  84.0470028
 101.4353943  71.3917542  68.5389137 101.7679882  72.1082020  69.0795755
 101.7737865  70.5996370  68.9563751  15.2811958  25.5486941  73.3991051
  15.9182693  26.1521053  73.7815571  14.8376133  26.0640717  72.7254152
 100.4659748  22.4140239  90.9775543 101.0962009  23.0283761  90.6012249
 100.4048634  21.7088318  90.3331947  11.9150497  25.2803230  60.3710127
  11.7930080  25.4262185  61.3091230  12.8497268  25.4266858  60.2254534
   5.9991314  75.7039785  42.9812384   5.4677726  75.5594063  42.1983051
   5.8441402  76.6204214  43.2100296 112.6285839  46.5973902  71.3095665
 111.9078445  47.0208836  71.7758560 112.5418758  46.9027519  70.4065371
   8.4206821  49.9296618  87.3562241   7.7150108  49.4780540  87.8191566
   8.2416202  50.8596277  87.4952507  18.8895752  70.2790451  63.6061049
  19.2541267  69.7846556  62.8720045  19.2501117  71.1598778  63.5042429
 109.7861767  72.0926619  54.6102476 110.1684666  71.3678885  54.1154861
 108.8966656  72.1745825  54.2663240  24.9457027  28.4317470  90.6057262
  24.3667270  28.5831118  91.3527966  25.0570919  29.2961812  90.2100277
 103.8423729  45.3047609  40.8816338 103.0517578  44.9464750  41.2851048
 103.8080120  44.9995470  39.9750471  40.5312827  89.8722990   6.7929661
  41.0214903  90.3543956   6.1269962  40.0764277  90.5500133   7.2930061
  87.4830151  57.3123455  57.1174097  87.4414539  56.4182138  57.4565792
  88.2812691  57.3314095  56.5895319  18.9161064  54.5068884  37.6388979
  19.4435646  54.6723509  36.8574619  19.2706062  53.6941528  37.9994774
 113.3071613  41.4411497  62.4586201 113.1700611  41.0431433  61.5989542
 112.4925137  41.2740374  62.9325962  72.7700710  98.3651352  79.3765450
  71.8131256  98.3438587  79.3710661  73.0136585  97.9693413  80.2133465
  30.4717876  56.8320417  46.6860771  29.7004463  57.3654079  46.4942837
  30.2465107  56.3659286  47.4912024  14.7966006 104.3820698   2.2772419
  15.5563643 104.1737826   1.7335426  14.6994307 103.6240037   2.8535473
  50.5799582  69.4219108   7.5878250  51.4987376  69.3948169   7.3207581
  50.5017569  70.2297468   8.0952942  28.0396797  66.9332504  70.0671768
  28.9832641  66.8188763  69.9540091  27.6695301  66.7352009  69.2069483
  12.9722358  37.6066709  53.1530428  13.6212970  37.8090715  52.4792624
  13.4565689  37.1058822  53.8094425  70.2806664   7.7322561  54.6199274
  69.9380159   8.0587792  53.7879372  71.1405897   7.3735869  54.4005632
 102.5461483  76.5023613  68.7249184 102.7718067  77.0821905  69.4523191
 103.3352375  76.4789677  68.1835985 105.0511932  71.7299700  60.0236177
 104.2823982  72.2246456  59.7399282 105.0428963  71.8010187  60.9781408
  93.0966047   2.3573477   5.5645764  93.8876584   2.5084145   6.0819161
  92.5164750   1.8711407   6.1504757   8.1884529  85.8315563  45.8054161
   8.9341785  86.3180447  46.1567879   7.9386951  85.2340508  46.5102816
   5.7114699  89.7009094  16.2197697   5.5419733  90.3985269  15.5866539
   5.8189967  88.9137990  15.6857884  17.3977043  32.5242233  77.0921087
  18.1816055  32.9739904  76.7767715  17.4332573  31.6620588  76.6778135
  95.8351803  79.8912048  90.9223175  96.4494705  80.0993347  91.6262817
  95.4346371  80.7310867  90.6978607  93.5794163  72.9334450  65.8934832
  93.3553028  72.3717594  66.6354513  93.2563591  72.4587965  65.1276016
  99.3714619  71.0471106  30.8497834  98.9519691  71.6525173  30.2384377
  99.7059727  70.3413677  30.2963734  66.7896131  46.7676813  16.3952744
  67.5134137  46.1627752  16.5578854  66.9421151  47.0903856  15.5071079
 106.5390205  64.7000313  71.5388775 106.6156387  65.3133345  70.8079672
 107.0862961  63.9565325  71.2860441  19.8692752  37.6626873  75.8661270
  19.4479610  38.1607962  76.5665674  19.1894676  37.0649672  75.5549717
 100.3910065  41.9231558  61.4406347 100.1520061  42.7034283  61.9409132
  99.6180153  41.7334843  60.9089041   8.0766441   0.7166629  81.9732285
   7.6762058   1.5845668  81.9220352   7.6562645   0.3030236  82.7271652
 110.9353638  43.1247330  71.2649298 110.8073616  43.8511419  71.8750000
 111.5268135  43.4734678  70.5979967  41.6556739  99.2337537  64.7771120
  40.7571458  99.5551712  64.8517799  42.0011710  99.6675593  63.9969349
  72.2657919   1.8663903  30.6124020  71.6572189   2.3845932  31.1390328
  71.8287325   1.0218481  30.5030346 111.7273521  16.1850703  82.4382591
 112.6446533  16.1854506  82.1647549 111.5156555  15.2602434  82.5651836
   8.1997825  11.6438508  26.4371991   8.8415577  12.3528147  26.4787650
   7.5822784  11.8381178  27.1423125  92.2446632  22.9992580  52.7160931
  92.8105354  23.7325215  52.9576397  91.7816639  23.3013177  51.9346714
  82.2786236  26.0119176  46.9215202  81.6678715  25.3879738  46.5292120
  81.7310524  26.7537642  47.1785259  75.1281022  90.4662932  36.4573812
  75.4379605  90.4565347  35.5517745  75.8180665  90.9197188  36.9417286
  54.2219830  17.0828736  49.0300655  54.9609756  17.4575460  48.5507536
  53.5728788  17.7858412  49.0571022  75.9843111  45.0588512  81.8666553
  76.3709641  45.7126284  81.2841511  76.6486359  44.3727446  81.9311428
  47.4993276 102.9236413  28.3899236  46.7537355 103.4161062  28.7331629
  47.2777795 102.0072741  28.5555172  61.7342328  80.0005103  39.3586659
  62.5029229  80.5483962  39.2000175  60.9900521  80.5678154  39.1571903
  67.7655125  22.8048992  62.5732327  67.6879263  23.3104563  63.3823204
  67.8435802  21.8965745  62.8649282  88.1517315  32.9572272  66.2798595
  88.2293224  32.3072863  66.9782782  87.7908230  33.7313032  66.7120457
  93.6212444  18.0358636  48.0308676  94.3786907  17.9362893  47.4541521
  93.4221649  17.1455681  48.3206463 111.2437817  77.3114484  68.0044854
 112.0784089  77.7646845  67.8852713 110.8137652  77.7848166  68.7166941
  18.4111263  16.0533619  38.1404424  17.4690200  16.2194586  38.1733799
  18.8050605  16.9224644  38.0648899  15.6440879  11.1723387  48.8621378
  16.0123874  12.0526433  48.7869644  16.0166408  10.6928480  48.1221914
  14.3844413  86.9654120  65.0203228  14.5423268  87.1553720  64.0955400
  13.4333800  87.0156742  65.1161861  86.0227441  93.7159587  41.5479708
  86.4875459  94.1674829  40.8434725  85.4333638  94.3781829  41.9089746
  95.3004837   7.9450178  66.8204832  95.3445530   7.1091920  66.3560629
  96.1375618   8.3687913  66.6309023  73.9510012  24.7358227  64.5116997
  73.1624317  24.8599982  65.0398779  73.7630320  23.9633441  63.9786148
  22.4233581  35.5532551  40.9933519  22.9209186  36.1899590  40.4802465
  23.0775787  35.1299119  41.5492392  68.6465501  91.2846089  26.5172744
  68.5113954  92.1179045  26.9684768  68.4873532  90.6204987  27.1879816
 104.3770885  17.3246038  29.0906835 104.2946720  17.3096585  28.1371546
 103.9664650  16.5095758  29.3793821   5.9844162  26.7260528  68.7432241
   5.4031326  26.0318685  68.4326601   6.8642856  26.4143467  68.5313177
 102.0777607  13.8247406  35.4059887 102.8550720  13.8877308  35.9610152
 102.2228718  14.4723225  34.7161984  91.4248276  10.8794487  33.7290788
  90.9740543  10.7465494  34.5629692  90.8020401  11.3739347  33.1963015
  18.7629651  97.8469980  47.5892782  19.3584775  97.3502124  48.1503534
  19.3134832  98.5239840  47.1957731  63.1703233 105.2389943  64.0136862
  62.4025964 104.6882660  63.8602924  63.4994744 104.9585811  64.8676538
 110.2628326   8.5845208  59.4852400 110.3606033   8.9901984  58.6237860
 109.3825054   8.2088339  59.4745350 106.3547325  55.1509237  46.2654400
 107.2754288  55.0103617  46.0445690 106.0184765  55.6965685  45.5544996
 103.7316990  54.1356325  50.6720829 103.7584782  54.9536276  50.1756954
 102.9212856  53.7110806  50.3906012  12.6502277  10.4639840  48.8789129
  11.9744636  10.9755182  49.3237925  13.2388164  11.1192513  48.5041904
  25.5190848  77.1556521  62.8595448  25.5468272  77.6336909  63.6883640
  25.6091403  76.2362552  63.1101990 109.1857910  30.8005834  44.1695070
 108.3938599  30.2644563  44.2100573 109.6542931  30.5974102  44.9791145
  91.5416813  12.5536311  20.8422852  91.2877560  12.7181220  19.9341583
  90.7326031  12.6658523  21.3413024  15.9495638  42.4539571  90.4365251
  16.1668585  43.2692283  89.9844748  16.3832377  42.5285047  91.2865864
  41.2725877  85.5138064  46.2989759  41.3401746  85.2127600  47.2050858
  41.9377660  86.1979867  46.2236595  64.8247193  94.9293018  39.0103149
  65.0963639  95.7789088  38.6630249  63.8715123  94.9899400  39.0732336
  19.0343238  33.1406784  29.3040967  19.7489311  33.4728050  28.7607169
  18.3538200  33.8108492  29.2406940   4.7639324  17.7798665  21.7995286
   5.4208137  17.4292243  21.1980438   5.2690651  18.2788503  22.4414635
  89.2643738  15.8889544  55.3063011  89.9124432  16.1925173  55.9419775
  88.4708977  15.7468295  55.8224678  66.4702797  12.8138864  46.4052343
  66.7456818  13.5754418  45.8949232  66.2218237  12.1629119  45.7489300
  44.6501016  91.9342781  87.9470158  44.1768312  91.9045151  88.7785053
  44.0481424  92.3708654  87.3442936  41.9547176  78.5127688  66.6025162
  42.3616075  79.1953850  66.0689306  42.2421121  78.7035466  67.4953985
  47.6797341  84.8655224  63.7035131  48.2300710  85.1852370  62.9885674
  47.4042844  83.9930988  63.4220171 106.2006092   9.8039067  66.4441252
 106.1975765   9.3010408  65.6296635 106.7690659  10.5520797  66.2615585
  90.3223610   3.5128030  47.2707510  90.5105400   3.0295655  48.0752993
  89.3868256   3.3753377  47.1220446  97.3719501  14.8782337  71.3876724
  98.2206535  14.8516178  70.9458256  96.8010807  15.3504181  70.7815552
  26.9525816  81.7114623   1.5836632  27.7945330  81.8740923   1.1583244
  26.9892695  82.2239859   2.3912537  45.7352401  20.1679492  59.9637222
  44.9745227  19.5871675  59.9791145  46.2256481  19.8997629  59.1866684
   6.4773513  25.2872109  34.0851045   6.7892696  26.1917496  34.1124821
   6.4786293  25.0614691  33.1549072  79.0706921  16.1734641  64.9406767
  79.2899036  16.7487657  64.2077351  79.7759390  15.5264699  64.9565649
  25.4163887   3.0967981  65.0230265  25.4478981   2.8089717  65.9353828
  26.3176300   3.0086812  64.7128153  62.8794193  13.1417799  88.4042835
  62.0044327  12.8628123  88.1344604  63.3146524  12.3342180  88.6775017
  95.5179024  21.5335298  79.2452431  95.1171017  21.1880469  80.0428867
  95.1733494  20.9795904  78.5447693  94.1923618  13.0973661  72.5798559
  94.3938065  14.0299511  72.6569176  93.9893055  12.9719901  71.6528845
 112.7918625   0.1179049  56.8148279 113.6380100   0.5533484  56.7115784
 112.6192093   0.1500211  57.7557802  79.0237664  87.0497478  54.5611477
  79.9651860  86.8767846  54.5669746  78.7010335  86.5925193  53.7846041
 105.0382710   6.5755576  13.0095196 104.5843124   7.3946023  13.2078278
 105.9655094   6.7804164  13.1298947  46.8884801  99.1131938  51.8314123
  47.6975392  98.8036150  52.2386265  46.5647935  99.7899134  52.4259758
  50.1965760  99.6753604  48.4984112  50.5561589  98.7892402  48.5399103
  49.2481183  99.5507938  48.5323143  89.8901653   6.4092451  65.1212645
  90.4857349   5.7794046  64.7152805  90.4580402   6.9686270  65.6512117
  68.1254625 103.0572126  33.4001279  67.2214650 102.8517354  33.1618023
  68.1977414 102.7916450  34.3169069  10.6439544  22.9465652  39.6059012
  11.3709308  23.3399868  39.1232443  10.0347568  22.6565433  38.9269328
  27.3204757  26.8581557  35.5344844  28.1810810  27.2467685  35.6912136
  26.8506004  27.5156569  35.0215077 104.6133232  27.9535556  76.3911724
 105.0293350  28.3528352  75.6271410 105.3345394  27.7917027  76.9993496
  60.2185105  89.2765606  24.2070961  59.9491166  89.3605733  25.1217556
  61.0650396  88.8315261  24.2466450  62.6492356 104.2933882  50.8637905
  63.0459546 105.1354829  50.6408072  62.5125455 103.8621605  50.0202322
  89.3915367  26.0175991  17.1742415  88.6104012  26.5560508  17.3012209
  90.1067543  26.6485500  17.0930171  85.2516270  30.5604100  26.9626284
  86.0300446  30.3414059  26.4504504  85.2525234  29.9286652  27.6817465
  71.6106366 102.0266852  89.4602203  70.7847165 101.5757031  89.2849827
  71.4978551 102.4023113  90.3333855 104.4566154  26.3067865  50.0664425
 105.0502968  27.0513964  50.1630783 103.6163425  26.6995287  49.8299551
  81.1547661   5.8973098  45.1066542  82.0204258   5.7493591  44.7258997
  80.5855465   6.0549366  44.3534040  99.4518089  36.8553686  75.5433416
  99.3992424  37.2440672  74.6702003 100.0167084  36.0907650  75.4315281
  62.8775071 105.0338339  34.2552614  63.4294557 104.4353417  34.7586370
  63.4789514 105.4551656  33.6412764  72.6672410 104.9068042  27.6678920
  71.8386125 104.9186101  28.1469178  72.5612973 104.2071879  27.0232630
  72.8425264 104.2461563  65.8674288  72.8337430 103.9259422  64.9654198
  72.3709249 105.0783097  65.8307695  14.2422725  42.4061346  62.0345545
  15.1437236  42.0869112  62.0758867  13.7484886  41.6804886  61.6526651
  19.2785694  37.4716973  72.2874355  18.5943939  37.2322488  72.9125738
  19.9347927  36.7802453  72.3740482  95.9407139   3.6126888  47.5296545
  95.0701046   3.2186604  47.4747801  95.8199883   4.3841925  48.0832243
   0.7564594  66.7867661  46.7478085   0.5961563  67.2059250  47.5932884
   0.1760246  66.0256386  46.7439318  14.9554779  51.6126633  51.6093063
  14.9491836  50.6995535  51.3222170  14.2797710  52.0351171  51.0790396
  99.9310589  24.2469025  52.9157686 100.6555843  24.5714712  52.3810339
  99.3764782  25.0138855  53.0586243 100.0367260  59.1442108  29.5054054
 100.9256554  58.8612032  29.2910862  99.4725990  58.5933733  28.9626622
   9.5574142  34.4345379  59.9890041   8.9812614  33.6817122  60.1214314
  10.1785232  34.1460848  59.3202400 111.7866802  26.0688782  70.8837223
 111.3728619  25.9934759  71.7435503 112.2555828  25.2421474  70.7702637
 110.2965164  30.0376892  88.8354111 109.8446655  30.2248335  89.6582413
 110.4681396  29.0964699  88.8650990  73.9019775  36.5144229  69.9475479
  74.4316101  36.8471694  70.6721163  73.2527113  37.2000837  69.7908497
   4.5877887  19.9336958  36.5720630   4.0482093  20.4684830  35.9897542
   5.1980163  19.4841444  35.9874606   5.3344108  26.4480400  36.6765523
   5.3338577  25.8701205  35.9135056   4.9444629  25.9226441  37.3752165
 104.6558952  15.0808012  73.8426638 105.3453159  14.9114168  73.2006073
 104.5917702  16.0351551  73.8790989  98.6615086  70.6039186  15.0959885
  98.4888411  70.0517852  14.3333828  97.9106236  71.1960716  15.1379120
  95.2935886  34.1214228  53.4229565  94.6767235  34.2527437  52.7029085
  95.2196598  34.9171615  53.9498043  15.7108833  27.5078678  36.5073085
  16.5342380  27.6840281  36.9625950  15.3298427  28.3731747  36.3580322
  31.6667701  24.5241523  88.7763786  31.3802005  24.7974348  89.6478271
  30.9304287  24.0207934  88.4290123  95.6068897  62.5957870  71.8534279
  95.8265591  61.8476391  72.4086285  95.9018993  63.3582735  72.3512411
  65.5816125 104.3736801  22.0753551  64.6281385 104.3858457  21.9918752
  65.8390569 103.5091115  21.7552352  87.3729753  90.1326717  58.8327551
  87.7329873  89.5669246  58.1497097  86.9975614  89.5271850  59.4720364
 102.9140472  39.9702168  47.5576019 102.8263092  39.2661309  46.9151115
 103.8152695  40.2763081  47.4559212   9.8083736  29.3201780  77.2513628
  10.5613281  29.8177290  76.9324017  10.1899959  28.5406876  77.6550817
  67.5076771  10.0716364  10.9408653  67.4643850  11.0058367  10.7368386
  66.6658115   9.8771727  11.3527799 111.7479610   2.6436087  48.7406063
 111.6151333   2.4770392  47.8074169 112.6892757   2.5306135  48.8724709
  97.9927158  36.7748332  66.3516521  97.0882607  37.0028806  66.5665674
  98.0708122  36.9610286  65.4159927  85.5637360   4.6155488  46.4446259
  85.4271889   5.3601331  47.0304394  84.7402477   4.5353121  45.9633112
 109.5476151  11.1179864  34.0803790 109.9069405  10.8035922  34.9100018
 108.5993767  11.0399270  34.1851592  72.1243333  97.7767450  19.9151599
  72.6323938  98.3039541  20.5317330  71.4333963  97.3839081  20.4485607
   3.9072277   9.3198925  71.7076349   3.0894233   8.8326967  71.6072607
   3.6315586  10.2289486  71.8253469 108.8932037   7.5423723  67.2660208
 109.7196388   7.3004383  67.6839876 108.9966679   8.4689474  67.0492601
  76.8482065  40.6559515  88.8763618  76.5742493  41.5362215  88.6188507
  76.3493538  40.4731798  89.6725845  87.1314716  18.3939922  52.4711227
  87.0574570  17.6350915  51.8924856  86.8579388  19.1350043  51.9304657
  12.9006626  30.7230639  74.3643188  13.4312679  31.3418746  74.8660755
  12.8071167  29.9650049  74.9412298  53.5662889  99.9360592  47.6847124
  53.6995458  99.7625971  48.6165857  52.9867124 100.6975425  47.6633120
 109.6794510  18.8310850  40.5834484 109.3391895  18.6390185  39.7096276
 109.9458313  19.7494578  40.5402279  33.2957031  13.5745823  67.0712137
  32.3946048  13.3658290  67.3175526  33.2271816  13.9168382  66.1799240
  78.3912802  25.8130860  82.6196003  78.1677246  26.3668060  83.3677006
  79.1377401  26.2518024  82.2114849  10.7801582  10.7020450  79.6679401
   9.9964859  11.2331045  79.8095655  11.2623264  10.7619226  80.4926586
  97.0382404  33.1338334  55.5459309  96.7340565  33.5897708  54.7611809
  96.4144897  32.4173641  55.6635809  81.9361877  41.1581707  66.4722538
  82.8803539  41.1414289  66.3157320  81.5526104  41.3042164  65.6075191
 101.5184975  28.4695554  27.9261088 101.7816925  28.6770892  27.0295095
 102.3435879  28.3486748  28.3960366  85.7837200   1.1568198  69.4379807
  85.7945251   1.8681331  68.7975550  84.8940182   0.8067405  69.3921280
  23.9050438   0.6840542  74.2621517  24.8509552   0.5413150  74.2955685
  23.5370781  -0.0246786  74.7899151  19.7436477  49.1955853  46.2015963
  19.6526195  48.2500839  46.0834026  19.5615341  49.5636749  45.3369713
 106.3023281  22.6933002  83.7808895 106.3867283  22.1735811  82.9815197
 105.4213524  23.0645680  83.7332916 107.6058530  96.1077011  48.9625025
 108.4476136  95.7064009  49.1784477 107.7959680  96.6762388  48.2162809
  26.5766288  33.8456106  60.2667141  26.0648014  34.6481776  60.3674889
  27.3841430  34.0139556  60.7523108  61.4813947  96.1721469  61.8739605
  60.7418012  95.5644978  61.8730068  61.8150853  96.1446965  60.9772301
  23.3811809  15.5582082  21.5731430  23.5134365  15.3976476  22.5074649
  22.8289081  14.8329031  21.2813044   8.7562801  41.1163855  67.8247118
   7.8675605  41.2186956  68.1652212   9.2452575  40.7210732  68.5464191
  77.7124262   5.2932733  68.3810568  76.7636871   5.4180199  68.4048176
  77.9243612   5.2448624  67.4488688  27.1879436  19.5351088  65.7161427
  26.7796089  19.0470564  65.0010872  28.1240894  19.3587554  65.6225443
  88.2599305  97.5240845  77.3449278  88.5740422  97.1278167  76.5321922
  87.6588105  98.2120401  77.0592642  83.4792805  31.3019943  77.5667906
  83.1572151  30.8659315  76.7778969  84.1881561  31.8654466  77.2565603
  87.1176720  24.3905640  49.9234200  87.0315266  23.7714529  49.1984987
  87.6020432  25.1280403  49.5522833  76.3357258  61.6886950  50.7009220
  77.2412920  61.8392181  50.9720659  75.8756351  61.4725542  51.5119886
  12.6586582  61.1196804  90.2755165  12.0735313  61.0818672  91.0321045
  12.6765205  62.0453644  90.0325775   7.5433780  40.2681065  50.7770729
   6.9784500  40.7036781  50.1388311   8.2700492  39.9235749  50.2579546
 102.5557137  12.8144240  74.0629625 101.8911934  13.4997380  73.9922619
 103.3880329  13.2871437  74.0648317   2.9358150  43.5083866  37.3859572
   3.1419231  43.1330347  38.2420301   2.0510055  43.1972599  37.1947670
  81.7163754   2.5216579  49.5551491  82.2924900   2.4044521  50.3105164
  81.3938904   3.4191880  49.6368599  96.4279079  34.5414352  25.6399941
  96.7361164  34.2850780  24.7707868  97.0189381  35.2460074  25.9055161
  36.8071796  18.7971032  64.6754599  36.0852195  19.3297732  64.3418884
  36.7872860  18.0041909  64.1396141  85.4135369  75.6847072  58.7335682
  85.9670495  76.1881519  59.3305588  86.0196828  75.0957251  58.2842207
  78.2893609 103.0653689  66.1625910  78.7246560 102.2128922  66.1684990
  78.8686418 103.6336163  66.6702890  92.9112816  30.5197310  68.8078260
  92.1316338  30.1425219  68.4002781  93.4507084  30.8080792  68.0715418
  97.4681187  27.8923392  61.7160845  97.0369148  27.0489621  61.5782070
  97.3226929  28.3718634  60.9005260  20.2335502  30.9249854  35.2078176
  20.3780128  30.7594514  36.1394620  19.4531395  30.4144740  34.9920368
 105.2204895  21.6545510  48.1758881 104.6380424  20.9024787  48.0692005
 105.1294804  21.8992329  49.0967989  20.0040390  27.0244956  70.1540375
  20.3888275  27.6253772  70.7920885  19.2322017  27.4857616  69.8258018
   6.0557033  66.2101316  59.6628618   5.9531070  66.5019846  58.7570333
   5.8760978  66.9902420  60.1876497  43.6603309  10.6372023  52.3826838
  43.6704876  10.8453250  53.3169270  43.5328247  11.4817286  51.9505358
  92.9742527  30.3314567  71.8662024  92.9988289  30.2963090  70.9099674
  93.8020992  30.7443213  72.1120596  16.5539028  34.5452952  58.1002712
  17.1466400  34.5041060  58.8507318  17.1036674  34.3245363  57.3484373
   9.4234993  54.3019152  78.4892464   9.0543415  54.0543652  79.3369961
  10.2643634  54.7062302  78.7030268 105.2704906  12.9009688  51.1130905
 104.9521923  12.4995327  51.9216490 104.9384785  12.3337197  50.4172230
   6.7834903   4.3447280  27.0725751   7.3984577   5.0782424  27.0754170
   7.2842361   3.6137676  26.7103791  46.7493457  85.5501373  37.1196758
  46.9899739  85.5666668  38.0459892  46.7499925  84.6212513  36.8885815
 100.9950520  26.8169290  21.8991768 100.8790280  27.7635366  21.9811356
 101.1403562  26.5149195  22.7957832  74.7228886  25.7358295  35.1485932
  75.2286637  25.0248320  34.7550118  73.8333573  25.6079323  34.8190415
  90.3346469  15.6592829  12.6233112  89.9856950  16.0180551  13.4392368
  90.6790961  16.4198572  12.1552097  83.1991895  -0.0780027  20.1802361
  82.3144080   0.2867157  20.1996052  83.7416734   0.5869085  20.6043064
  45.5622310 104.0175278  29.9495518  45.8782888 103.2939131  30.4905903
  44.6484370 104.1307623  30.2110684  67.6629330  99.3460448  12.5468552
  67.5472284 100.2238925  12.9104817  67.9274417  99.4957287  11.6391861
  82.9604436 105.3387291  27.9157078  83.0745364 105.2440245  26.9700634
  83.3760024 106.1753590  28.1245052  52.7132155  11.2015278  51.7351639
  53.5962035  11.3840420  52.0564949  52.7414109  11.4402134  50.8086311
  13.6419824  13.8878424  25.5727875  12.7949146  13.8524134  25.1284229
  13.9865545  14.7558052  25.3626835  35.0739387  38.5566599  44.2341816
  34.3214324  38.6674005  43.6530602  35.2349904  39.4317991  44.5869171
  55.6726398  39.3252165   4.5170986  54.9348070  38.8324816   4.1578686
  56.2616672  38.6553461   4.8643028 105.1138951   9.0576059  52.2297680
 105.5657746   8.2368118  52.4255478 105.8107092   9.7131378  52.1987068
  20.9356836  64.4780046  12.4009144  20.4843238  63.7450773  12.8196346
  20.8979944  64.2794973  11.4652836  68.5303415   4.4044382   0.8504879
  68.1404807   3.9941818   1.6224587  67.8706093   5.0310928   0.5533611
  54.7133900  84.7262461  19.1321575  55.4896868  85.1540382  19.4935333
  54.3885411  85.3379471  18.4714520  12.2774270  10.1131899  18.3558476
  11.8499950   9.3618376  18.7669480  11.6814187  10.8449108  18.5158264
  58.6847831   8.7889797  10.7786572  58.2649984   9.4364483  10.2122605
  58.0003430   8.1426174  10.9518158   3.9751104  14.0735084   5.7838642
   4.7711900  14.5676453   5.5881226   3.4638933  14.1129476   4.9755776
  51.3953079  97.8459151  24.8091900  51.1862040  97.9339678  23.8792717
  52.2971595  97.5254233  24.8225891 104.9977876  41.8369276  28.6928951
 104.7130372  42.7392752  28.8375008 105.2098204  41.7992384  27.7602303
 109.9542500  14.7250492  25.4932224 109.4676210  14.1704685  26.1030304
 110.8448865  14.7421152  25.8435166   7.7695707  51.0237867  40.0719940
   7.5667432  50.0938589  39.9703610   8.5937312  51.0373766  40.5586159
  98.3819486  11.3340361  15.5009567  99.2383720  11.7352564  15.6486046
  97.8970052  11.5003044  16.3093006  34.6676973  23.1329996  15.6530296
  35.1910260  23.9135916  15.4712879  35.1867059  22.6391394  16.2878239
  92.3394109 104.2677290  41.1233532  92.6880360 103.6234648  41.7394745
  92.7704621 104.0632422  40.2935230  80.2163316 100.6883557  32.9854309
  79.4315005 101.2014420  32.7930462  80.9239150 101.1584885  32.5443661
 106.7421271  27.2661573  36.3568699 107.5551178  27.7391989  36.1793530
 106.7081024  27.1980555  37.3110401  99.0688563  92.6567752  10.1099503
  99.6046401  91.9123275   9.8361408  99.6456576  93.1726487  10.6733429
 109.0149023  14.7432024  20.3743660 108.2567813  14.9624855  20.9160340
 108.8479139  15.1815063  19.5399582   0.7733539  25.6765491  14.7182667
   0.2935508  26.3865978  14.2918312   0.4461911  25.6728393  15.6178200
  98.3538987  31.9518263  41.0320007  99.2685367  32.2157843  40.9320271
  97.8518893  32.7032644  40.7164681  78.2009481  22.9902679  17.9401600
  78.4608834  23.2714111  17.0628845  77.8933223  22.0915396  17.8223335
  18.0520252  26.0040266  28.2243454  17.7150920  25.4202587  27.5446903
  17.2914890  26.1976940  28.7723457  38.5392594  82.1419525  73.2089281
  37.7555847  82.3929214  72.7199507  39.2429209  82.1619797  72.5603151
   3.3486322   7.5860245  44.4801914   4.1788104   7.5104362  44.9506485
   3.2133678   8.5286219  44.3830025  30.9869531  29.4047338  45.3578102
  30.8124593  30.2037794  45.8550942  30.8677820  28.6973650  45.9915745
   7.3989251  12.9795916  35.5422890   7.4592164  12.0664675  35.8230126
   8.2308772  13.1497938  35.1005661  71.5850939  32.5336344  24.1347611
  71.9089730  32.3294432  23.2574665  71.3995053  33.4723169  24.1090882
  85.2055533  17.9002602  54.2912113  86.0642959  17.9097540  53.8684857
  84.5829685  18.0002863  53.5710632   8.5983232  39.4315130  22.1114647
   8.2372430  39.0632231  22.9178250   9.5396617  39.4893438  22.2750866
  20.2231267  20.6667072  32.7928459  19.5254281  20.5654365  33.4402954
  20.3767637  19.7803766  32.4656689 109.5173903  52.8778410  89.1936874
 109.4418071  53.4470177  89.9595642 109.8459022  53.4508705  88.5009098
  84.6177258  19.6513969  26.2913429  84.6013935  20.1387627  25.4676735
  85.3340812  19.0254719  26.1851227  96.4690568  18.6616022   4.7973454
  95.8586694  18.2221825   5.3894341  96.9524862  17.9488785   4.3795502
  87.5403096  51.2134058  38.1578076  86.6737677  51.0067923  37.8075897
  88.1194653  50.5605966  37.7645504 104.6150924  14.3648846  10.0730335
 104.3369295  14.6244556   9.1946995 105.2157332  13.6338789   9.9278080
   3.7358794  84.9326420  72.0864725   2.8124779  84.7157955  71.9578695
   4.1629806  84.6509266  71.2774897  60.8221722  88.0011661  19.2792141
  60.1322723  87.5330670  19.7494805  61.2613870  87.3251517  18.7631523
  13.9417127  19.0910513  25.8130467  13.0077318  19.2923672  25.8712589
  14.2764238  19.6963722  25.1513970  20.1242852  89.7246456  84.0890884
  19.7052932  89.2280388  83.3861923  21.0619211  89.6399307  83.9161777
  15.8464158  56.3434029  80.2919960  16.4028406  56.3826990  81.0698700
  16.4371347  56.0749722  79.5882750 112.3766280  99.0987904  11.6932690
 113.2582427  98.7262137  11.7062866 111.8079425  98.3607991  11.4737236
  18.1762269  10.9339983  62.1822846  18.4185317  11.8580372  62.1216404
  18.9817050  10.4609615  61.9732964  64.2562843  91.9928963   5.5090725
  65.1928426  92.0030124   5.7065308  63.9144541  91.2505443   6.0073578
 102.5085880  23.8960344  32.7724945 102.7812864  24.6717674  33.2625019
 102.5262477  24.1729624  31.8563950 106.5002300  21.6258318  24.1057694
 107.4146749  21.7125303  23.8364899 106.2772419  20.7164127  23.9071190
   4.5861390   9.9375564  30.9459507   4.6866134   9.3038685  31.6562855
   4.0347818   9.4913942  30.3031647  14.5790198  94.9302609  42.0663368
  14.5035269  94.0376933  41.7289173  15.4435637  95.2229817  41.7780220
   7.2686866   2.4334175  44.1760933   6.7437557   1.6429264  44.0503800
   6.6296390   3.1143982  44.3861401   0.0279406  52.5004751  12.0993817
  -0.3819153  53.1596262  12.6595223   0.9407714  52.4763376  12.3864185
 100.2134587   9.7335989  20.7173264 100.1558425   9.1584427  19.9543678
  99.3212225   9.7634918  21.0626518  94.3968465  37.4576265  26.8548882
  94.9170853  38.0471117  27.4008572  94.6365525  36.5804178  27.1536839
 109.5890214  58.8580400  49.8486054 108.8206531  58.7341005  49.2913925
 110.2040960  58.1829054  49.5620453  24.5703414  32.7976973   4.1080296
  23.8354924  32.7576620   3.4959614  24.2505840  32.3570806   4.8953259
  13.6569742  17.4343521  13.0549156  13.6807445  16.5156156  13.3224785
  13.4290746  17.4073584  12.1256363 101.2591054  44.1855318  41.2933647
 101.3671281  43.3176214  41.6823303 101.2823130  44.0294630  40.3492558
 102.3746492  17.8039820  51.9308293 102.9823639  18.3614714  52.4167549
 102.7097966  17.8088982  51.0342323  38.2297277  52.7701330  79.4825840
  38.6905289  51.9700098  79.2302084  38.5951567  53.4468651  78.9127350
  25.8063701  44.1203958  51.7303002  26.2655834  44.2421324  50.8993160
  26.3832238  44.5170671  52.3830807  95.0330652  31.3617212  14.5727837
  95.6722047  31.5847189  15.2495491  94.6750035  32.2046644  14.2944348
  42.8276348  72.1137905  91.6755676  42.3160410  71.5307951  92.2364712
  43.7387943  71.9144535  91.8907070  29.6542886  28.2788355  36.5590965
  30.5923990  28.0913240  36.5910637  29.5361760  29.0133078  37.1614468
  25.1136783  26.2400801  50.2855503  25.4351476  26.9840795  50.7948124
  25.8460143  26.0057241  49.7154629  17.1353698  77.0673656  91.9784832
  17.9955113  76.8688393  91.6083717  17.2248793  76.8713284  92.9111099
   6.5503982  26.5975267  26.3529980   6.1245731  26.5538818  27.2091591
   6.6423276  27.5342256  26.1786949 107.6823236  28.9617521   4.7628224
 107.5564481  29.1313631   3.8292229 107.5929906  28.0125410   4.8479855
  81.7530061  94.0759356  27.5174057  81.5664197  95.0012858  27.3588097
  82.5406695  94.0802176  28.0612862 109.2021586  37.2873766   8.3995640
 109.6195366  37.4334318   7.5506317 108.7725665  36.4364893   8.3120262
   0.6247309  33.5520060  42.3584759   1.2780407  33.7810785  43.0194866
   0.2212098  34.3869192  42.1211254  38.9862227  58.4833813  90.8961105
  39.8398423  58.8845968  90.7330322  38.5405207  58.5161924  90.0496387
   8.8662246  41.3918573  33.3152306   9.6307042  41.0505087  33.7792217
   8.3192018  40.6225855  33.1564629   0.0597170  14.7818787  38.1472408
   0.8990339  15.1546652  37.8774178  -0.5600115  15.5074484  38.0716240
  14.4573167  40.9865076   3.1692993  14.9732354  40.9739096   3.9754688
  13.5640624  41.1712629   3.4594547  37.9841188  20.1522476  15.4068482
  38.2866100  20.4549009  16.2630856  37.0403961  20.0336964  15.5144035
  85.3307916  88.9278467   6.8575775  84.5711470  88.5593350   6.4066040
  85.0351334  89.0565045   7.7588379 101.2166430   8.2478744  24.6046841
 101.2922265   8.1604273  23.6544811 101.9167663   7.6955206  24.9524796
  97.0733024  18.0611021  21.0833275  97.6205899  18.0645019  21.8686306
  96.8765904  17.1365578  20.9324848 103.1098963  27.9656965   9.5426190
 102.3669292  27.5703794   9.9986374 103.0546714  28.8969118   9.7571480
   4.5416024  24.7227032  60.5811703   3.8340572  24.5949060  59.9492848
   4.0944913  24.8837931  61.4120590 108.0721189  44.8255808  14.1222679
 108.8365175  44.2615969  14.0045654 108.2159044  45.5532343  13.5172283
   2.9875902  80.2524454   7.1917545   3.1212047  80.6968576   8.0289375
   2.0904115  80.4748136   6.9430554  98.8507868  23.4726221   2.8294003
  99.5593454  23.9204342   3.2916081  99.2378070  23.2104332   1.9941151
  78.7740517  91.0130787  89.4734669  79.6689892  91.3384438  89.5707035
  78.2815981  91.4565849  90.1641369  11.8351463  23.1654674  28.6877072
  12.0344070  24.0969307  28.5933506  12.2856477  22.7485639  27.9532253
  38.3046317 105.0638866  88.4009838  38.2222486 105.2618885  89.3338490
  37.4019599 104.9910069  88.0909729   6.5376762   2.0292360  29.9693787
   5.9548429   1.5716869  29.3634236   6.9178155   1.3343269  30.5068123
 105.4180361  32.0568735  51.4103424 104.5197369  31.7293913  51.4555847
 105.8213188  31.7635900  52.2274029  36.4000419  13.7650473  22.9372990
  36.5508893  14.6932012  23.1162178  36.9174245  13.3063538  23.5992253
  24.2407945  64.5042116  20.1624977  23.6880830  64.8030073  20.8846295
  23.6390975  64.0507395  19.5721161 101.7915322  39.2584021  19.3676579
 101.8359591  38.4704286  19.9092877 102.3869325  39.0821821  18.6391842
 107.9718949  35.0172407  33.3367741 108.7416460  34.6125585  33.7367165
 107.8214099  34.5095045  32.5394165 104.0820052  81.8894369  19.9656021
 103.4010793  82.3902018  20.4148209 104.0948536  82.2459013  19.0773499
  18.3619858 105.1415951  23.9381516  18.7803603 104.7782595  23.1576550
  19.0907312 105.3899176  24.5069229  82.0171298  28.5753233  14.9927151
  82.5950457  28.1278307  14.3746578  81.8124856  27.9124529  15.6522286
 111.0881402  23.8970310  15.5709469 110.5280854  24.6348841  15.3298199
 111.5487053  24.1925556  16.3562977  67.2670246  97.1374686   7.7438557
  68.1001139  97.4037154   7.3548805  67.1195436  96.2520773   7.4113381
  92.7122212 105.6633217  22.9525959  92.8608371 106.5962489  22.7983486
  93.4410573 105.3938897  23.5115444   9.3409494  53.4051115  30.7247269
  10.1287607  53.0491049  31.1356175   9.5532087  54.3229277  30.5550301
  20.1494745   3.0750067  39.2755901  19.3401674   2.7892858  38.8517677
  20.8452609   2.6483185  38.7755406 103.3772017   6.8404324  25.3911984
 103.9208867   7.6219923  25.4901898 103.5215069   6.5612204  24.4870674
  32.9563955  27.5609857  21.7888367  32.9035905  26.8328649  21.1697399
  32.1640781  28.0725176  21.6251194  21.9265083  20.1400692  17.6738751
  22.7817348  20.1986057  18.0997765  21.8856481  20.9134514  17.1113407
  33.0567363  28.7058622  32.1836674  33.9941505  28.7566358  32.3705113
  32.7029517  28.1544001  32.8814804  13.1420052  86.9489574  75.4579258
  12.9935014  87.8553486  75.7274294  12.9811037  86.4344692  76.2489033
  94.6541978  98.2663090  10.8595192  94.0040351  98.3299096  11.5591442
  94.6281577  99.1212876  10.4298985  32.4859050  41.8057520  43.5807621
  33.3496192  42.1817095  43.7507069  32.6686433  40.9298117  43.2408058
 111.4340665   8.8040859  13.8915169 111.8722536   9.4084770  14.4906342
 112.1481539   8.3663876  13.4281265 106.8810202  25.4054195  16.8272221
 106.1124446  24.9448568  16.4904606 107.5559522  24.7297413  16.8917095
   6.9020990   6.1180193  40.5163395   7.7967504   5.7953245  40.6244957
   6.3707403   5.3265030  40.4303658   9.0407470  56.1427099  37.9006684
   8.2478479  56.6670210  37.7882111   9.6134046  56.6873056  38.4407723
  23.8526443  31.5126211   6.4687359  23.5324720  30.6715662   6.7948353
  24.6456006  31.6807444   6.9778454  12.2558215  24.1539843  33.7147534
  12.6768258  24.2124350  32.8571045  12.5064281  23.2917244  34.0463173
  99.2978169  33.1751425  15.4125034 100.0105716  32.5604422  15.5867493
  99.7371580  34.0055353  15.2290642  24.3336606  34.5987105  86.7464542
  25.1583982  34.9271560  87.1044540  24.5865488  33.8418031  86.2178993
  90.7679595  25.3804190  33.1856262  91.4494886  24.7577650  33.4387123
  90.0497247  24.8332817  32.8677952  69.0015055  51.7559570  37.9275906
  68.9905763  51.4454820  38.8329708  68.8956405  50.9634489  37.4013245
  38.8218975  41.0270452  92.0076180  39.1903782  41.6559887  91.3872337
  38.8330460  41.4850140  92.8480816  29.2893362  56.6004658  72.1732998
  29.8260403  56.1882067  72.8502226  29.8851943  57.2042942  71.7299271
  67.1372581  91.6624339   5.2525723  67.2574426  92.4242647   4.6856510
  67.7047158  90.9906490   4.8745167  67.3182519   6.1912329  14.0481960
  66.6774108   5.9813625  14.7275459  66.8009921   6.2678368  13.2464516
  90.4548646 103.9735110  15.3088581  91.3750459 104.1104920  15.0836193
  90.1585151 103.2943184  14.7029602  65.0910688 105.0388272  15.8222878
  64.4517780 104.3673403  16.0602867  65.8454085 104.8612101  16.3841259
  43.0202723  31.6630983  89.1011906  43.1606865  31.0154200  89.7918606
  43.8988686  31.9724274  88.8807011  65.0328470  76.0075624   3.3831513
  64.6546460  75.4925592   2.6704323  65.2597285  76.8451602   2.9791844
 104.9746610 101.3040240   2.7246296 105.6618787 100.6377299   2.7288448
 105.0466348 101.7168982   1.8640625  71.9492794  96.9011529  25.5362618
  72.6658011  96.6045220  24.9751579  71.1608506  96.7619402  25.0116360
  72.0809031  63.8904543  27.0117485  72.6498772  64.6263154  26.7858898
  72.6376749  63.1181176  26.9130909  91.8816365  11.6822225  11.5514099
  92.5004257  11.0524494  11.1816609  91.5637435  12.1772320  10.7963383
  91.2441874  72.8071160  43.8296520  90.5451203  73.1688674  43.2849800
  91.0661460  73.1486769  44.7059261  43.3076281  93.1109030  22.6829445
  43.7840701  93.7346919  22.1351158  42.4863584  92.9597504  22.2150814
 104.7656892  22.6611781  92.1301842 105.1125495  23.0310559  91.3183308
 104.9482356  23.3265114  92.7936840  99.0089204  18.5402328   8.4507572
  99.2186810  18.3630878   7.5337708  98.2796456  17.9522974   8.6475289
  61.3185979 102.9108365  39.2993176  60.3925944 102.8688748  39.5380509
  61.6805626 103.5944254  39.8631680  83.1265117  90.8134706  28.7308895
  83.3342696  90.9882529  27.8129971  83.0362845  89.8617489  28.7790119
  98.7939908   6.7719395  48.7864792  98.1241037   7.3350937  48.3987438
  99.5367266   6.8348867  48.1859696  10.2315271  37.0630884  74.4754505
  10.8053243  37.8231668  74.3791771   9.4415635  37.2960353  73.9876747
  20.0573468  54.3692923  82.5675201  20.5646420  55.0535679  82.1308899
  19.2881668  54.2491245  82.0106125  20.9869790  30.0530529  70.5936289
  21.1451554  30.6506920  71.3244104  21.8152022  29.5862532  70.4823923
 100.0002743  10.5715925  12.5975334  99.0915348  10.6762106  12.8794586
 100.4362108  11.3709385  12.8928864  68.8155437 101.0212262  27.3706638
  69.6968723 100.8374054  27.0455467  68.7886287 100.6107361  28.2349598
 104.1985105  33.9310408  49.1590881 103.2709299  34.0429878  48.9510107
 104.2021833  33.4340596  49.9771500  74.7338081  80.2634795   3.1382668
  75.4629494  80.8687527   3.0032551  74.8397280  79.6041472   2.4524891
 102.7665950  99.6337349  33.0332005 102.7276660  99.6761353  32.0777332
 101.9069148  99.3029244  33.2934868  20.4406169  13.9007694  23.6569321
  20.9577468  13.4579117  22.9841244  20.4510406  14.8225004  23.3989918
  74.0735435  62.6548147  82.2917843  73.4119606  62.2149658  82.8257084
  74.7229338  62.9652357  82.9227829   1.0617851  90.7665063  89.1800022
   0.2893066  91.2797320  88.9431381   1.1195850  90.8462251  90.1321220
  33.8057995  47.7881861  87.0223141  33.9628005  47.0711327  87.6366615
  33.8501215  48.5786057  87.5603676  68.0628348  94.4600899  15.7450974
  67.4693538  93.7168391  15.6374466  67.4976445  95.2296479  15.6774437
 106.7936875   2.4412043   6.2027371 107.0782544   3.3461792   6.0751640
 107.1130802   1.9782526   5.4282105  85.4797173  86.9756515   9.7935879
  84.7291566  86.3993557   9.6494782  85.1776839  87.8380926   9.5086300
  33.7819076  59.3551779  91.3729382  33.2491302  58.6104965  91.0939503
  34.6156120  58.9670658  91.6385269  44.6130741  99.2398818  14.9445069
  44.6258385  99.1522248  15.8975994  44.0175004  99.9707587  14.7791588
   9.4234562  59.1069889  85.4935741   9.1129529  59.9718237  85.7616711
  10.1936579  59.2856789  84.9540424  25.4995349   8.4061033  12.6246941
  25.4204086   9.3188030  12.9020989  26.2079957   8.0528051  13.1627381
  62.5342871  95.1090415  24.6636307  63.1633068  94.3916399  24.5867836
  62.7278925  95.5074723  25.5121624  54.3714310  64.6918924  17.4147045
  53.7204362  65.3631861  17.2102463  55.1779867  65.0086970  17.0080864
  23.5119298   5.9856398  15.8858311  24.0917543   5.4310734  15.3638279
  22.9283956   6.3920481  15.2450955 106.6194822  25.6751377  31.3922703
 107.5385787  25.9323484  31.3192093 106.2235357  26.3539154  31.9388306
 111.6220087   8.0728114  77.8955841 111.7019913   9.0168607  78.0319881
 110.7094879   7.9447103  77.6364946  49.5006586 105.7737095   0.5371201
  48.8201738 105.7811387  -0.1360214  50.3040505 105.5588372   0.0631725
  31.3080311  55.9831619  91.1514854  31.3686156  56.5441513  91.9246960
  30.4024529  56.0788441  90.8565140 107.1739103  15.5816013  31.2167561
 106.6785981  15.2309639  30.4765236 106.6032960  16.2533600  31.5900814
  81.5634728 101.6244109  11.8791020  81.4381600 102.1542246  12.6663887
  81.5019513 100.7200701  12.1866905  56.5429927  98.5351784  14.7334015
  56.4069033  99.4653542  14.9136269  56.4057482  98.4514506  13.7897980
  51.4843130  10.1748264  77.2796965  51.6518164  10.4566300  76.3803864
  51.0069227   9.3503255  77.1873474  68.4152270  70.6302078   8.9612209
  68.1438042  71.5376074   9.0997326  68.1069542  70.4198952   8.0797589
  21.1396554  15.5766661  34.0677559  20.9403709  14.8440773  34.6507084
  20.4996494  15.5005676  33.3600533  39.7343016  55.9590101  87.3526669
  40.0539637  56.8578863  87.2747231  40.5237818  55.4194736  87.3096466
  80.5106641 104.3983347  27.9136669  80.1563884 104.3419631  28.8010990
  81.4107753 104.7009451  28.0338776  92.7569199 106.2458451  17.8378117
  92.9493667 106.7942173  18.5983860  93.0541659 106.7623646  17.0887577
  62.0107842  83.3098633  14.5865166  61.9183279  83.6816795  13.7093365
  62.9339314  83.4378297  14.8048222  67.6570822  91.0563452  12.5051129
  66.9785810  91.1086423  13.1782639  67.4177504  90.2907593  11.9827759
  67.5719024  88.2405121  28.3205521  66.8518425  88.8622434  28.2147419
  67.5210906  87.9688866  29.2369949  83.5760499 101.8072398  22.2340882
  83.2817746 100.9423239  22.5196659  84.4746018 101.6678555  21.9350731
  60.7352997  78.5091860  11.6120922  60.6282783  79.4501550  11.7512047
  61.6723324  78.3544619  11.7315113   7.6743925  29.7124052  90.0591183
   8.4823877  29.2079139  90.1532650   7.3742545  29.5203519  89.1707134
  72.7858497  79.7270138  16.0024750  72.3607469  80.3808863  16.5574276
  73.6608721  79.6270616  16.3774025  55.8081913  35.1588583  77.8788280
  55.1781273  34.9808145  77.1805811  55.5887175  36.0403919  78.1804276
  40.4348898  33.1470251  72.6030970  40.7025003  34.0013552  72.9418278
  39.8544550  33.3512068  71.8698597  85.5777741  84.5948966   2.2456371
  86.1664582  84.8867209   1.5495598  85.5724288  85.3174670   2.8734123
  71.4614940  70.6872458  29.4155132  71.0635281  71.0000927  30.2279007
  70.7182790  70.4809911  28.8486588  40.4408216   3.4567878  77.7101851
  40.0457573   2.7949077  77.1426773  40.0257778   4.2777461  77.4456215
  96.7766525   8.7500746  13.4404671  97.2071578   8.8110907  12.5877297
  96.5994574   7.8161747  13.5530388  80.5104924  96.4327462   5.6160748
  81.1533070  97.0693715   5.9286987  79.7337867  96.9551547   5.4159557
  53.2340158  69.9558015   7.4292099  53.3312965  70.1436133   8.3627522
  53.7621642  70.6250162   6.9939625  28.3832192  26.9210434  42.0535040
  28.3752608  25.9639668  42.0666504  29.2979670  27.1551371  42.2105551
  95.6201268  91.4236410  46.9998753  96.1588574  91.7044861  47.7395546
  96.2152482  90.9140904  46.4499485  62.7779938  77.4809940   4.5933067
  63.5079528  77.5927026   5.2023422  62.9198910  76.6176040   4.2051708
 110.1022704  51.3420105  76.1751890 110.1779802  50.4230976  75.9181023
 109.8082627  51.7892933  75.3816319  68.5640932  88.8758833  38.0637467
  68.1586886  88.7429125  38.9205944  69.1926885  88.1586225  37.9822838
 112.6420547   8.6316282  10.9614479 112.8814484   9.4194157  10.4732716
 113.4129526   8.0676681  10.8990204  21.3724208  11.6700268  78.1714106
  21.0475159  10.7869267  77.9959059  21.5137053  12.0499849  77.3042870
  54.1536046 100.5157549  41.1119568  54.2794908  99.6359141  40.7566178
  54.2534924 100.4085953  42.0578777  79.8727513 102.7312214  39.0119373
  80.0345565 102.0572503  39.6720993  78.9760209 103.0207713  39.1800511
  23.9987111  70.0518942  91.1373901  23.6354566  70.5244923  90.3884411
  24.4357324  69.2923450  90.7522488   4.9420264  98.3995278  43.3821785
   5.0223353  98.4603102  42.4302876   5.8109190  98.1291277  43.6790573
  96.6334568  47.9187870  91.5234184  97.5061010  47.6361370  91.2498665
  96.0656761  47.1761656  91.3175869  59.7845745  79.6239090  81.4872837
  59.6171331  80.5646038  81.5446186  60.2469730  79.4130564  82.2984314
 110.0855424   3.4482080  13.4709370 110.4701735   2.5890810  13.2971680
 109.1824724   3.2591993  13.7258351  96.2285067  21.4007646  10.0379193
  96.8247630  21.3471205   9.2910397  95.6441642  20.6500179   9.9322998
  16.8118385  15.4309732  33.4757340  16.4720634  14.5772726  33.2074368
  17.3194507  15.2489454  34.2665684  58.2943201  76.6092396  91.9276428
  58.5440397  76.8413877  91.0332203  57.5341988  77.1601009  92.1147156
  12.9344466  86.0904868  29.4770348  13.3823969  85.4697330  28.9023697
  12.1504595  86.3447173  28.9902508  19.3166637  66.3271618  90.0795460
  18.9970374  65.8351660  90.8358574  19.7118390  67.1138954  90.4552078
  37.5658011  53.5456657  91.8835163  38.1694341  53.2902431  92.5810909
  38.0748892  54.1395044  91.3317776  95.5342389  95.6238539  34.0380108
  95.9679890  96.3359482  34.5081436  95.2539445  95.0190957  34.7249806
  38.9294410  50.1623344  81.5076065  39.6564388  50.0104237  82.1114540
  38.1486034  49.9273539  82.0089149  21.0117054  38.2711411  90.6758404
  20.4733944  39.0350008  90.4685497  20.4858613  37.5233912  90.3919601
  60.5981947  97.8567870  27.9779637  61.0205890  97.7866967  27.1218693
  60.3722239  98.7834485  28.0584061 108.4422923 100.9878953  19.8878872
 109.2293502 100.5159743  19.6157562 108.6109734 101.2299235  20.7984936
  17.1274999   8.6768181  26.9033253  17.8200725   9.3129475  26.7246926
  16.3954452   9.2035181  27.2241318 106.0025884  11.2914450   7.8085911
 106.9262172  11.0470611   7.8670227 105.7301523  10.9924728   6.9410526
 101.9367768  29.6000273  25.5281555 101.0327126  29.7072203  25.2325070
 102.1249487  30.4003603  26.0183632  87.2690059 105.6397278  48.3556759
  86.3306666 105.6454785  48.1666767  87.6723815 106.0248168  47.5777065
 112.3329879 101.2794573   4.2884361 112.1913672 101.1589797   3.3494770
 111.8990661 102.1080763   4.4917309  38.2130289  51.5241098  89.9300480
  38.2915950  52.4304533  89.6323872  38.7221575  51.4930391  90.7400227
  25.7373670   6.7006857  45.0058663  26.2641815   7.3440248  44.5317185
  24.8813299   6.7304212  44.5786011  99.1196014  26.2436611   1.4517605
  98.5685541  25.7257158   0.8649838  98.8545872  25.9725315   2.3306763
  74.8559118 101.6500886  59.5440685  75.7631851 101.3642771  59.6508419
  74.7794915 102.4201329  60.1074707  54.1925097  68.3986516  25.8539974
  53.8159204  67.6528854  25.3868305  54.1481329  69.1209538  25.2274620
  98.3453490  25.9793074  11.6958439  97.8308751  25.2259714  11.4059555
  98.7489845  25.6927235  12.5150978 107.2921349  10.7748396  56.9179165
 106.8888618  10.4995663  57.7412235 107.7449753  11.5900356  57.1338284
   1.3421109  81.0442002  36.2991535   1.6380360  81.9301708  36.0900795
   2.0474722  80.6752856  36.8307602  38.6894611   2.7578909  19.5609772
  38.9773563   2.0372469  20.1213562  39.4955972   3.0925495  19.1680729
   9.9762505  67.3201609  77.8622055  10.7647741  67.6363707  78.3031988
  10.1969969  66.4308834  77.5852776  84.8036338  86.3821776  33.0165493
  85.2533198  86.3738139  32.1716034  85.4123689  86.8254573  33.6074650
 111.6892912  12.4766809   2.2952282 110.9661867  12.0568592   2.7611649
 111.2904121  13.2337362   1.8662846  52.7203382 103.1036646  40.0886070
  53.6724211 103.1802495  40.1510918  52.5465775 102.1703656  40.2110397
  74.4210387  94.3834670  21.7963516  73.7555123  93.7845213  22.1348297
  74.5494915  94.1101868  20.8880245  22.8660730  18.0592997  27.3158562
  23.2685617  17.1912319  27.2896111  22.8536561  18.3452637  26.4024555
   9.1415885   9.9785692  63.1307804   8.8405708   9.2509157  62.5865948
   9.0401080  10.7512600  62.5750076  60.3182889  91.3552697  45.9068882
  60.9775329  91.9084413  45.4878056  59.4987965  91.8389208  45.8032238
  12.3556283   3.0848152  36.6544640  11.5018180   2.6737291  36.5193760
  12.2647003   3.5599501  37.4804222  54.3745876  95.9549220  14.6547138
  54.2872537  95.9148200  13.7023461  53.8373149  95.2304585  14.9752152
  85.6001546   5.5801470   1.5937054  86.3207044   5.1781685   2.0789444
  84.8377152   5.0426037   1.8081104  76.1793418  27.2852117  10.2632916
  76.1984128  26.4956028  10.8040154  76.6271348  27.0333177   9.4556725
  88.2580520  98.7523491  44.6185028  88.6468507  98.2542498  43.8994991
  88.4660865  98.2436974  45.4022324  53.9562559  39.8340392  80.4318810
  53.0643606  39.5516586  80.6344128  53.8513327  40.4693460  79.7236347
  54.4772781  88.3204181  52.1552765  54.8851586  87.7997525  52.8472149
  55.2052165  88.5811861  51.5910637   9.0759471   2.6108820  10.1790630
   9.2870429   3.3498413   9.6084416   9.4464830   1.8497641   9.7322666
   3.3584835  88.5147364  25.0724423   3.1508686  87.8192551  25.6964886
   4.2574122  88.7662132  25.2843868   5.4630578  66.6957712  86.4391708
   6.3482821  66.3379145  86.5066147   5.0601691  66.2048340  85.7229996
  74.8532296  98.5621483   3.1245339  75.3371716  97.7657588   3.3431542
  74.0303112  98.4823735   3.6068928  63.4065488   0.6446917  29.4574272
  63.8737920   1.2181408  28.8499081  63.8407377   0.7829315  30.2992165
 112.8976442   5.5143291   5.5695641 113.6024024   5.4153282   6.2096798
 113.3163311   5.9272701   4.8143017  65.2005339  66.1433942  15.1216423
  65.2572227  66.5215833  15.9991276  65.2164865  65.1974363  15.2670395
  56.0589863  95.4892571   3.8987171  55.5250586  95.8690579   4.5965111
  56.8771733  95.9852870   3.9262402  71.1805511 100.7852108  26.2256252
  71.8216062 100.1472123  26.5390598  71.6819645 101.5926392  26.1121761
  99.2381169  42.2905714  34.7045910  98.9036133  41.6798193  34.0478432
  99.7662689  41.7475111  35.2897083 106.5645839  98.4473069  10.6280625
 107.0387698  98.6834652  11.4253151 105.8106900  97.9452498  10.9376156
  63.3096433  89.8505290  30.3517162  63.7119604  90.7147224  30.2648651
  62.3681355  90.0230892  30.3471291  51.9501165   2.7444775  36.5643227
  51.4188054   2.0695764  36.1418926  51.3711980   3.5046846  36.6206371
 107.7900887  90.7784970  36.7759430 107.6535798  91.6990788  36.5520584
 107.2212697  90.2986939  36.1738979 110.9652402  22.2898418   3.9677632
 111.2133171  22.7262241   4.7827828 111.6462542  22.5419981   3.3441746
  37.5345731  48.6829424  66.6638660  37.4170256  49.0447044  65.7854939
  37.4823546  47.7350378  66.5414619  59.0186048  99.4846518  31.5765106
  59.1007472  99.8714335  30.7047951  58.1492473  99.0841086  31.5798676
 110.7753373  82.0143969  32.5435078 111.4749623  82.5775297  32.2123921
 110.4697085  82.4536498  33.3371555  95.7915355  12.6188690  21.3911736
  96.6325690  12.5846130  21.8469345  95.2435197  11.9833595  21.8516457
  71.1855422  21.8452055  -0.0235832  71.8881579  21.2082273   0.1061356
  71.6027652  22.6946146   0.1201641 103.9943229  74.2731619  91.2395191
 104.7176729  74.1584826  90.6231976 104.3358426  73.9485884  92.0727253
  52.4868631  88.7450218  74.6930599  53.0848789  88.0268097  74.4862270
  52.8186989  89.1034698  75.5162430  57.2947407  71.3969135  78.9805412
  57.0446301  71.5093231  78.0634594  57.8568029  72.1483612  79.1693497
  65.0800323  71.3325691  89.7020531  65.3692675  70.4527903  89.9440479
  64.3950510  71.5425682  90.3368187 110.6387569  17.2569734   4.2167675
 110.5581690  18.1894476   4.4173348 110.6983687  16.8322069   5.0724899
  70.3780985  68.2819128  90.9099388  71.2430382  67.8933954  90.7789326
  70.1390076  68.0381918  91.8041801  34.0188861  35.4670763  56.2543392
  34.9274325  35.7473207  56.1437082  33.6899352  35.3629804  55.3614855
  84.4567920  83.5653765  54.1054356  83.5862447  83.7142427  53.7363636
  85.0595284  83.8823683  53.4327900 107.0578385  83.5883887  34.4138062
 106.2700272  84.0826256  34.6403324 107.7215052  84.2580946  34.2486679
  29.2985585   4.9339086  13.0448448  30.1400426   4.8340160  12.5996983
  29.0368179   4.0400583  13.2656681  29.0372232  16.7765266   4.2512047
  29.0767339  17.1275932   3.3615887  29.3606666  15.8793671   4.1692269
  96.3455965  27.5201685   9.8578846  96.1953165  26.9061357   9.1391384
  96.7405869  26.9882185  10.5487168  35.5570078  71.8258286  88.6773682
  36.1147571  72.4372959  89.1582584  35.7826567  70.9659624  89.0322590
   1.8117000  51.4064264  91.9336319   2.1906129  50.5375433  92.0666695
   2.4342076  52.0049715  92.3464966   0.1808050   0.4295713   8.1854832
   0.5893305   0.0496561   8.9633000   0.9109715   0.5999309   7.5904476
 102.3311307  24.9838526  -0.2716053 102.9963543  24.4218571   0.1257145
 102.2646929  25.7323486   0.3213226  22.8567934  27.0647788  87.4215984
  23.6046982  26.9382262  86.8377686  22.8182769  28.0111670  87.5597954
  15.8429721  12.6293737  36.7412483  15.8136562  11.6842729  36.8900788
  15.6090024  12.7339727  35.8189976  29.6350816  17.8086264  11.6131985
  29.6044973  18.0222494  10.6806385  29.0783408  18.4674389  12.0282185
  16.9233659   3.6793596   9.6714317  17.3767474   3.6080486   8.8314354
  16.7369512   2.7741510   9.9205982  93.8212014  96.9603856  16.4253723
  94.4224072  96.2187798  16.4946949  93.4658337  97.0639451  17.3081028
  12.2812259  35.3907013  71.8982649  12.8102458  34.7921848  71.3708687
  12.8037751  35.5415511  72.6859331  57.8036309  98.0090554  37.6125061
  57.7013326  97.1406539  37.2230827  56.9389249  98.4114153  37.5311291
  83.3745719  86.5182097   0.3129017  83.6641551  85.6491525   0.0352108
  83.3838607  86.4795215   1.2692749  17.4465993  23.6591560  10.0514710
  18.1558231  23.6543018  10.6942856  16.6697124  23.9047605  10.5538189
  85.0105906  82.3754580  32.0682633  85.2647591  81.9514568  32.8879273
  85.8142663  82.7892144  31.7533886  97.7672625  82.6982887  62.0593369
  98.6583234  82.5078280  61.7661297  97.8801490  83.1149108  62.9136860
  89.8443366  66.8585737  30.8909428  89.8612643  67.3209114  31.7289078
  90.6521560  66.3451381  30.8843147  63.0692149  99.3493493  37.7959358
  62.1417690  99.5660288  37.8914654  63.4531213 100.1193936  37.3765576
 106.4030911   0.4695780   1.2691986 106.3497545   0.6067593   0.3233826
 107.2780086   0.7766563   1.5067970  86.0009267  12.8228933  23.5756504
  86.7599513  12.4118978  23.9894020  85.5400480  13.2540590  24.2953121
 102.0585205  23.3241922   3.9385235 101.6532947  23.7616140   4.6873104
 102.8104021  22.8621132   4.3091786 108.5855772  14.5621759  10.7425797
 107.8946234  15.0889189  10.3408920 108.2521440  14.3553717  11.6156780
  67.6886226  84.0149529   6.2220394  66.8567730  83.5713871   6.3878929
  68.2494951  83.7529547   6.9521153   7.6333860  51.4024622   4.6903717
   7.8348211  50.7013590   5.3101360   6.6818670  51.4961798   4.7357380
 105.6460644   1.1805517  38.2218563 105.9117247   1.4277059  39.1076100
 105.8715727   1.9393236  37.6836693  51.7402172  65.5683899  87.0577335
  52.0341301  65.5887175  86.1470032  50.8277750  65.8553791  87.0214081
  66.3671207  95.6163597  85.7731342  66.0605049  94.7342777  85.9832478
  66.9305277  95.4982471  85.0083733  45.0307515  17.9870302  51.4167702
  45.6800321  18.6699850  51.5848171  44.1920141  18.4482653  51.4186299
  39.2630533  14.3519051  10.7630837  39.3672803  15.2478249  11.0835373
  39.8382905  13.8292486  11.3217938   5.4089502   1.1017258  34.3357384
   5.3955701   0.7909471  35.2409851   4.8417714   1.8727810  34.3388092
  26.7095617   9.7839481  18.4544289  26.9411281  10.3571016  17.7236092
  25.7958129   9.5483429  18.2938301  73.3752728  77.3916323  21.1000454
  73.0628444  77.6845009  20.2439892  74.0967370  76.7950709  20.9004604
  96.8252517 104.2577155  19.5820439  97.2809554 103.9676983  20.3722775
  96.5572120 105.1558907  19.7761357  31.1666512  52.8199720  70.2228355
  32.0189095  52.9836607  70.6266832  30.9166908  51.9503593  70.5351257
  70.0387550 100.4499753  47.1814739  70.4765988 100.9648926  47.8592503
  70.6951524 100.3550942  46.4912712 107.7211811  29.7699625   2.2939503
 107.5600340  30.5445558   1.7551815 107.5671221  29.0318186   1.7043316
  48.4653664  34.4834328  72.9440975  49.2367935  34.2965198  72.4091196
  47.8133678  33.8447547  72.6556206  52.2244787  56.5608215  91.8187714
  53.1140947  56.2874126  91.5950203  52.1924829  57.4880266  91.5831852
  16.1524967   5.1429350  23.5600578  16.5335658   4.5452434  24.2033112
  15.5707410   4.5919830  23.0363667  42.8885282  94.6245511  25.2017605
  43.6371065  94.9433787  24.6975720  42.4116627  94.0612347  24.5922482
  58.0491997  94.8515780  21.6763603  58.5177518  95.1619132  20.9015190
  58.0344177  95.6059105  22.2654164 111.0484649  69.6839042  42.2205078
 110.9041072  69.7772057  41.2788689 110.2386475  69.2937620  42.5494682
  64.6562529  80.5074389  16.9004929  64.4830013  80.8144290  16.0105621
  64.0651894  79.7635276  17.0165550   7.7657893  36.6144735  24.8124230
   6.8901733  36.8877298  24.5388233   8.1320146  37.3845083  25.2473557
  47.5507409 100.5057509  14.0058148  46.6235996 100.7069714  13.8787186
  48.0031408 101.0370619  13.3506214  86.9489861  68.6520386  84.5976353
  86.3144970  67.9788923  84.3516159  86.5487957  69.4737577  84.3132782
  56.2502384   4.8185563  87.1525288  55.7533932   5.1239175  87.9115582
  56.2720919   5.5714816  86.5618896  89.6153499  82.1979506  38.0229008
  89.6226836  83.1227953  37.7762425  89.5488215  82.2052510  38.9777577
  27.8645844  96.6627247  35.0548184  28.4903509  96.7571051  34.3366730
  28.2627810  96.0145934  35.6358540  13.1552556  22.6680166  19.0975964
  13.1364635  22.8623802  18.1605255  13.1869987  21.7124397  19.1434109
   2.0443323  19.3669254  14.6226132   2.4490550  19.9308903  15.2816879
   2.4855140  19.5988113  13.8054192  59.6891404 100.3473933   6.1728966
  59.6542741  99.9972851   5.2827084  60.0673128  99.6392186   6.6941464
  76.1783291 104.0111811  28.9550411  76.1678863 103.5933144  28.0939400
  75.4583431 103.5971768  29.4309151  62.9295135  99.1683657  34.9031937
  62.4007059  98.6294968  35.4915917  63.8222481  98.8424666  35.0174153
 104.7263289 105.5268652  35.2003777 105.3396560 104.8761542  35.5418980
 104.3228436 105.1017125  34.4436276  86.8987561  89.9629052   9.6160137
  86.7896033  90.9055979   9.4909203  87.4344350  89.6832283   8.8736736
  20.2572349   9.4492132  40.7612240  20.5109170  10.3465015  40.5449974
  19.8548702   9.1143543  39.9598419  34.5628357  44.3622160  82.9693699
  33.7871051  44.6250153  83.4647655  34.5172572  44.8756695  82.1628284
 111.3873387  74.5580776  29.4291031 112.1545125  73.9879520  29.4804394
 111.5326548  75.0849874  28.6433041  46.4158964  75.2157831  91.3277149
  45.9294510  74.5556831  91.8215466  46.5572166  75.9266806  91.9529247
   1.9064716   3.1973202   5.6173908   1.1671689   3.0759746   6.2131607
   2.2065905   4.0903122   5.7868778  40.0755504   0.3743774  24.6005070
  40.7740119  -0.0964516  24.1458618  39.2963270  -0.1651066  24.4663536
  46.7435838  97.8267987   3.8375008  47.2120900  97.0085843   4.0026199
  46.8868692  98.0013258   2.9073155  18.9193872  12.3481209  21.1940205
  18.0212644  12.6784069  21.2168610  19.4502691  13.0750830  21.5194809
  25.5995131  43.6725140  88.1977081  26.3686538  43.4688377  87.6655674
  24.9041820  43.1249714  87.8330994  52.9303602  14.1337807  40.4797184
  53.5121873  14.8863918  40.3734791  52.0715955  14.5179684  40.6562340
  97.4979426  49.1408808  29.2979157  97.3132350  49.6740705  28.5247242
  98.1172277  49.6637995  29.8071015  17.2290328  33.5360510  55.4498303
  17.6490024  34.1450960  54.8424446  17.7119926  32.7169687  55.3398907
  46.3876218  89.1057260  42.3773110  46.0377068  89.2730887  41.5022194
  47.3377765  89.1317375  42.2643387  38.8532239 105.0448926   2.5563156
  38.8243598 104.3155463   3.1755554  39.6785026 104.9271710   2.0859062
  61.8007399  37.3006613  13.8338101  61.6214599  36.6224844  14.4850838
  60.9353842  37.5844843  13.5391247  76.8149520 104.1476567   6.1867535
  76.6447354 105.0543911   5.9316170  77.2622419 103.7662203   5.4313290
  78.9169217  99.1589386  14.7365296  78.0360366  99.4205792  14.4685471
  78.7750388  98.4706862  15.3864586  14.6187055  39.9343038  89.6994305
  14.8959625  40.8462667  89.7870827  13.8987470  39.8418260  90.3234100
  91.0679902  18.3332378  11.3151180  91.0927631  19.1264040  10.7798588
  91.8865480  18.3531982  11.8108952  79.6827699  82.3726208  25.7360851
  80.3415776  82.9037983  26.1833489  79.0032769  82.2291024  26.3948166
  30.7556680  48.0374414  33.1406891  29.9229005  47.8913862  33.5894501
  30.5084565  48.3900434  32.2858250  90.9245528  28.5925466  28.1888210
  90.4422845  28.2530100  27.4349224  90.2562942  28.7231619  28.8615715
 107.2253562  71.8989737  29.0875351 107.8740216  71.3706560  28.6224091
 106.6004754  72.1609373  28.4114182  46.7131878  95.7451375  11.8237793
  46.2328012  96.5722306  11.7866718  47.5289405  95.9619982  12.2751629
  82.6092053  87.8440125  20.3194916  82.8545285  87.7195842  21.2363159
  83.2410861  88.4814389  19.9868595  34.9689889  77.0422316  89.0161705
  35.1578164  76.4891291  88.2581139  35.7816601  77.5242472  89.1693401
  65.0017835  79.6173127  21.9946396  65.0771666  79.9808819  22.8768932
  64.1219807  79.8630793  21.7086804  75.7653254  11.0444147  10.9503185
  75.9928119  11.9091541  11.2919438  76.5883548  10.6996138  10.6039536
 112.9596569  33.9391405  16.2812054 112.4191024  34.0156824  17.0674526
 113.6745741  33.3566744  16.5378296 105.4631449  19.3081219  30.3647434
 105.4768826  18.9543421  31.2540543 105.2248241  18.5624010  29.8139774
  19.1767362   6.6095049  27.7945149  19.9107030   6.5564091  27.1823895
  18.7748388   7.4591715  27.6134598  90.9488107  98.8770325   6.9451058
  91.4043189  98.1588871   6.5057766  90.1205684  98.9600499   6.4725029
  94.3261375  32.7436525   9.3921673  94.3850006  32.6698191   8.4396374
  94.4970144  31.8578226   9.7120773  35.8614612  79.3592501  92.1828270
  36.3122225  78.5186195  92.1029091  36.0015798  79.6205854  93.0929375
  95.1509477  88.2012255  26.2168228  95.3768445  89.0996320  26.4577973
  95.8337832  87.9400737  25.5989468  30.8591104  58.7468863  92.3522091
  30.6912327  59.5558262  91.8688202  31.5341234  58.9836264  92.9882431
  26.1321786  15.6421501   0.7103741  26.0853818  16.5891392   0.8417141
  25.2220395  15.3489811   0.7543575  30.4711556  53.8456678  80.0226784
  31.2687445  54.3748283  80.0141525  30.5105329  53.3663893  80.8503056
  26.3723329   8.8204557  43.2656014  26.1243585   9.6114046  43.7442887
  27.3030284   8.7060530  43.4578240  88.2672788  88.9348061   7.2356903
  87.4052096  88.9935787   6.8238461  88.3347751  88.0236251   7.5210392
  91.1722280  20.9793932   0.8363449  90.4888167  20.4090101   1.1882603
  91.1296918  21.7669470   1.3787281  78.1971605  27.6211245  37.4030316
  77.9313858  27.3073084  36.5386784  79.0430652  28.0438215  37.2547066
  50.4767466  73.3444309  90.5701923  51.0053825  73.4580374  89.7803307
  49.5831060  73.2319689  90.2461720  71.5853406  60.1002319  17.2834217
  72.1344233  59.5773257  16.6992008  71.6106821  60.9815694  16.9108212
  44.1306877  37.4011660  77.3334217  43.5751343  36.6217065  77.3395205
  45.0199842  37.0606947  77.2361469 103.9992048  52.3016531  13.7211239
 104.2316224  52.3848326  14.6459400 103.9405991  51.3578207  13.5728466
  73.6714459  87.9310234  18.6055958  73.6455799  88.1088288  19.5457852
  72.9566265  87.3114665  18.4592545  98.9285661   4.7199439  81.3850212
  98.8918067   4.7270488  80.4285526  98.5227490   5.5464935  81.6464520
   3.3942273   9.8135788   1.3343632   3.1899122  10.7163269   1.0903752
   4.3179897   9.7072918   1.1072075  97.9495408   7.3929340   7.2126019
  97.9030563   8.0322534   6.5017235  98.7859632   7.5725729   7.6419747
  16.1354879   7.6085932   3.8949024  16.1687330   8.5251028   4.1690266
  15.9034589   7.1290142   4.6901428  91.3369990  95.2726157  37.0620072
  90.8230067  95.5032713  36.2881577  91.9001485  96.0322220  37.2106373
  78.4030629 102.0829756  28.0486786  77.8522111 102.4668105  27.3664391
  79.1839600 102.6362784  28.0655110  89.5106269  70.6993778  42.4659741
  90.3732015  70.8529408  42.0804703  89.6648360  70.7115729  43.4105885
  75.4273372  10.6934864   1.5435040  75.7699753  11.3622934   0.9506046
  74.6957410  10.3022606   1.0660755 111.0004212  35.1853830   5.4351532
 111.6371085  35.5665667   6.0397637 110.5471803  34.5199186   5.9528076
  42.6566935  90.9196091  85.0234890  42.9346275  90.0039101  85.0016308
  41.8880463  90.9502792  84.4538593  98.4081675  11.6391546   6.4161503
  98.5292603  10.7237369   6.1640083  99.2467238  11.8946344   6.8005860
 103.2781865  21.4619953  23.5772240 103.9612128  20.9507400  23.1432545
 103.3789708  22.3455841  23.2231819  12.2697547  23.0035288   0.9043133
  12.5933746  23.5524589   1.6185772  12.2220233  22.1246130   1.2804234
  29.8855403   0.4287035  14.5302593  30.3148320   1.1041338  15.0553715
  30.5912450   0.0460607  14.0089142   4.4964364  16.7435867  31.1653721
   3.7689069  16.6887695  30.5457508   4.5778802  15.8574993  31.5181458
  66.1405016  93.3884127  23.4093678  65.3099204  92.9440720  23.5794556
  66.3745404  93.1260951  22.5190556  91.5987635  71.4471896  19.7660744
  91.2154628  72.3113198  19.6157658  90.9501124  70.8340282  19.4203579
  79.4058694   5.7184822  21.6075146  78.9605104   5.8197719  20.7663071
  79.9799709   6.4820129  21.6680443   6.5188173   6.2248928   7.1483528
   6.9539502   5.4216558   6.8625176   7.1342519   6.9231779   6.9250309
  24.7618389  35.2358603  80.6087971  25.2817702  35.8015203  81.1797047
  25.0463176  35.4626536  79.7234344  67.5339413  73.5655832  82.7671719
  67.1763325  72.7724600  82.3680401  67.7059269  74.1490316  82.0280838
  28.2435078 103.6919625  29.3593990  27.6886655 103.2482226  30.0008595
  28.7770063 102.9934866  28.9802658 111.7587568   7.4444706  29.6749699
 111.6344668   7.2937376  28.7379181 112.0040609   6.5879471  30.0248730
  74.6729898  38.3360505  84.2733955  73.8035917  38.7142253  84.1416168
  75.0474453  38.2842517  83.3940029  29.2150548  23.1693727  52.5029003
  28.3458331  23.2185728  52.9007351  29.5828203  22.3490459  52.8316128
  20.4549554  48.3852655  15.6757748  19.7378019  48.5148508  15.0551808
  21.1509946  47.9823381  15.1567185  19.9500707  17.2356493  29.1064560
  20.0196603  17.7330572  28.2916081  20.4752925  17.7309353  29.7350037
 105.9313156  28.7323267  50.8460533 106.6491200  29.2071611  50.4271042
 105.7421328  29.2347223  51.6385472 105.3885938  63.9008982  37.4523651
 105.5455114  64.6493132  36.8766224 105.6083228  63.1375963  36.9182121
  46.4420033  59.7247219  89.2712688  45.5897665  60.1595497  89.3004036
  47.0548677  60.3757620  89.6129990  76.5581179  47.0204926  88.0719852
  77.0006323  47.6402903  88.6518669  75.6772995  47.3795748  87.9649925
  70.4067279 106.7035849   5.0087368  70.2550150 106.1461337   5.7719242
  71.2483955 107.1247370   5.1832688  61.1183357  33.8104224  81.5712357
  60.5523825  33.7072062  80.8062077  60.8582973  34.6501613  81.9499874
   9.4757751  10.4155380  41.1765110   8.7624601   9.7849876  41.2756073
   9.5260289  10.5741388  40.2338802  76.4558960  96.1738617   1.4272892
  75.7580901  96.6955979   1.0309517  76.1706687  96.0395367   2.3310768
  22.4759534  28.7524206  18.1788265  22.6358798  28.6855871  19.1202080
  23.3401826  28.6471922  17.7810013  80.2198219  87.0263767  86.1982632
  79.3868160  87.4039364  85.9158039  80.4673767  86.4341259  85.4881954
  25.1059917  23.0538208  23.6876595  26.0288003  22.8812773  23.8744270
  24.6351341  22.6582605  24.4211781  36.2934974  37.4113161  31.8630421
  36.6070274  36.5532286  32.1487152  36.8973974  37.6670248  31.1658013
   0.7246259  18.6400444  17.1110260   0.9090117  18.4016830  18.0195534
   1.5073612  19.1097671  16.8230641  50.0105047  86.8207264  91.8753910
  50.8246946  86.3283157  91.7711735  50.0790453  87.5339699  91.2407112
  65.8950497 104.0302832  44.8435032  65.5676175 103.9408381  43.9485085
  66.4594794 104.8028691  44.8159516  10.0239614  40.5258829  36.9592201
  10.2564195  40.3579027  36.0460007  10.7590154  41.0328085  37.3041260
  10.0856689  17.0807869  18.7743771   9.6924260  17.0362312  17.9028237
  10.9564737  17.4493343  18.6256802  54.1635990  76.8532276  76.8674707
  55.0179482  77.2379446  76.6717339  54.3613005  75.9575987  77.1413279
   5.4744533  46.7470152  38.5838997   5.8585408  45.8929808  38.7822449
   6.0265258  47.1019251  37.8871262  38.5785440   0.0472099  13.3556854
  38.6315683   0.5312044  14.1798031  39.3523696   0.3241712  12.8650582
  33.1246093  15.4883320   8.2053196  32.2185758  15.3067858   8.4550678
  33.5103992  15.8939678   8.9817536  23.7109521   3.8070709  44.3569004
  23.0410293   3.1315786  44.2513287  24.1494468   3.5832912  45.1778042
  94.1351795  81.3248444  77.4787521  93.7660789  81.5510654  76.6250372
  94.9765682  81.7805195  77.5042820  68.1714773 103.5153580  73.6566496
  67.7955294 102.6517582  73.8271952  69.0260315 103.4938812  74.0873575
  20.9618619  21.7411644  27.6631558  20.8412507  21.9295484  26.7324555
  21.1690810  22.5898153  28.0544102  16.9336131   4.0297062  19.7499859
  16.9795469   4.0937550  18.7960350  16.1960891   4.5896418  19.9923908
  74.9321628  97.5146229   6.6101086  74.7859026  96.7669375   7.1895992
  74.2357732  97.4508936   5.9564984  34.7499374  48.0371458   4.8671353
  33.9722541  48.5635645   4.6818554  34.4073394  47.1662599   5.0681507
  47.3324064  20.0722773   3.8621533  47.1532682  19.1409428   3.7327206
  48.2503465  20.1766807   3.6117088  40.5416870 100.5044746  82.2706127
  41.0356903  99.9911594  82.9099083  40.7968330 100.1407337  81.4227772
  71.2619282  92.4785407  38.2417309  70.4957367  92.9872997  38.5069573
  71.3684607  91.8270142  38.9348328  77.7686215  84.6202738  16.5284455
  77.7102996  85.4326017  17.0313942  78.6570884  84.6223576  16.1722767
  10.2412656  19.9252159  68.1816113  10.7742027  19.8164446  68.9692509
  10.3860811  19.1219360  67.6816189  14.2793849  45.4967195   9.9584877
  15.1832965  45.2051813  10.0775730  13.7906364  44.6938402   9.7775471
  60.2811194 105.7498295  14.9947369  59.6516658 106.4233286  14.7370255
  60.1276780 105.0312693  14.3812477  52.4746084  86.7068195  87.4523354
  53.1125212  86.9535255  88.1219864  51.6526222  86.6022396  87.9315376
  92.8460026  91.7714787  89.8501682  92.8415871  90.8143234  89.8414612
  93.7334824  92.0044231  90.1228523  22.7855352  43.8396055  41.6990578
  22.4590591  44.4543631  42.3561108  23.2028964  44.3934614  41.0393059
 105.3211524   7.4223453   2.9253590 104.6268799   6.8531544   2.5933277
 105.3224708   7.2720749   3.8706886  39.1232538  80.8358955  88.7565899
  39.9639225  81.2625408  88.9223576  38.7607431  81.3048649  88.0049992
  69.6420479  99.1306686  89.6603298  69.0064287  98.5707569  90.1061058
  69.4967270  98.9636803  88.7290764  76.7669798  80.2350600  26.6755306
  76.6065122  80.3200419  25.7357132  76.1565495  80.8518584  27.0794785
  25.1092628  27.6133902  75.1538479  24.8305372  27.0526678  74.4298756
  24.4188789  27.5182325  75.8100140 103.8549663  22.2230560  26.3882458
 104.7598507  21.9468386  26.5335762 103.6842109  22.0108635  25.4706108
  40.0373939  27.5193865  18.2793343  39.3015436  27.9233534  18.7392914
  40.7706693  28.1158716  18.4301388  39.5812658   4.4558746   2.4727451
  40.3409770   4.1392118   2.9614174  39.5577720   3.9103205   1.6865837
  14.5085287  80.0063801  85.3432369  15.2282465  79.8427486  84.7337627
  14.6296239  80.9151459  85.6184101  20.6660989  56.7715818   2.0151341
  21.2814191  56.0456354   1.9121658  20.9408286  57.4131662   1.3600456
  33.9292243  43.9435656  28.7598335  34.5712713  43.3850653  28.3215534
  33.8314775  44.6977980  28.1786263  69.1660070  13.3921230  63.5746813
  68.9550257  13.1165671  64.4667530  70.0977564  13.6092496  63.6051178
  17.8203538  41.1760504  30.2865231  17.0634273  41.3043577  30.8582127
  18.2798770  42.0155222  30.3055107   8.2525352  16.3832886  14.5650971
   7.8388074  16.0436899  13.7715351   9.1406635  16.6136772  14.2923748
  22.0499996  38.1071169  29.1166699  21.2653974  37.6084406  29.3445885
  21.7278865  38.8238317  28.5700428  20.2068475  44.5837004   5.3137505
  20.0906471  44.8148806   6.2353241  20.6784204  45.3270895   4.9379646
 109.9054290  95.1822169   0.2124321 110.0229503  94.2746527   0.4930412
 110.6169129  95.6590922   0.6397640 107.5545956  38.3890039   5.7906925
 106.6251017  38.1603796   5.7885563 108.0073024  37.5504286   5.8805477
  20.9391359  15.4698307  19.4636357  21.0449127  16.1480076  18.7964642
  21.6055253  14.8169786  19.2492973  15.9192899  16.1202461   4.9715912
  15.2271465  15.4591352   4.9814617  16.3351873  16.0444290   5.8303845
  70.1191831  91.2035234  23.5499870  69.6450568  91.4541371  24.3428433
  69.6457148  91.6377933  22.8404343  49.2231930 106.6803820  32.0418465
  49.8575188 106.3747437  32.6902687  48.9430464 105.8856852  31.5877449
   9.4331554  26.2002546  31.7241490  10.2767900  26.1483557  32.1733963
   9.2675355  25.3073341  31.4216816  52.1297216  58.9015532  86.1498833
  51.9690895  58.0114317  85.8366585  51.2563086  59.2708158  86.2803745
 112.3874284  24.3944485  43.4317696 112.9359843  25.1763899  43.4941113
 111.5749265  24.7032148  43.0308449  16.8341926   6.0001213  14.4232285
  17.2293952   6.5226204  13.7253391  15.9650520   5.7752401  14.0911781
 101.2132836 102.5072939  16.6249859 100.4281283 103.0328591  16.7784512
 101.8694259 102.8791983  17.2143852  35.8843255  59.9973917  85.9382629
  35.5721188  59.0935421  85.9808826  36.6120124  59.9703836  85.3169918
  46.3548616  25.8352835  20.7102883  45.8791307  26.0767443  19.9155533
  46.5787366  24.9131567  20.5845844  69.1313362  66.8234396  78.7374687
  68.4583569  66.2409353  79.0896320  68.6474991  67.5897217  78.4293413
  23.1033996  35.7338125  22.0374787  22.1648696  35.5960066  22.1655571
  23.4933475  34.8707373  22.1762860  92.9671955 103.2982063  88.7366962
  93.8419819 103.4367085  89.0997219  92.5674725 104.1679478  88.7365341
  48.8573221  12.4114401   5.2430832  49.8089269  12.4548370   5.1493179
  48.5236791  12.5208599   4.3526089  74.9469137  74.1073036  81.1353207
  75.4958630  74.6585512  81.6930103  75.5226994  73.3923388  80.8641720
  30.5321124   9.2822391  29.7565663  29.6394304   9.6018011  29.6253025
  30.4600719   8.3310444  29.6773636  61.7756128  86.3364983  92.3898983
  62.4530983  86.8545437  92.8244877  62.0302629  86.3349819  91.4671898
 103.3868886  96.9140561  37.5741875 103.0720139  96.2429316  38.1797135
 102.6969195  97.5775130  37.5721180 109.3532469   9.6025307  31.0331547
 109.1765382   8.6701662  31.1584866 108.6140539  10.0446493  31.4507115
  56.3514570  24.4674427  11.4018261  57.1747449  24.9538071  11.3584339
  56.6181901  23.5528738  11.4948380  48.5063219  59.5462084  86.8704128
  48.3402777  58.7206554  86.4153004  47.8022861  59.6097279  87.5158024
  56.1587572  74.2445230  83.5136509  55.7009172  75.0734663  83.3741188
  56.2718296  73.8824654  82.6348114  51.0361862  74.9243736  79.8417997
  50.6151199  75.2984381  80.6157589  50.8778906  75.5660057  79.1493511
 110.4813148  15.8801014   6.6298783 110.5273678  14.9280197   6.7173683
 110.4971339  16.2044031   7.5303280 104.7903778   8.8829691  15.3914654
 105.3974940   8.2246143  15.7294094 105.3017427   9.6918518  15.3701985
  38.0798772  10.5106289  22.1793186  37.7966359   9.9439365  22.8968537
  37.3018649  11.0217125  21.9563305  44.6648121  32.2148633  70.4118252
  44.9248266  32.0756364  69.5011997  45.2512074  32.9031968  70.7257843
  88.4899903  90.6062825  20.9522354  88.2776452  91.2677629  20.2937615
  87.7312470  90.0227649  20.9589016  30.6351045  27.9486257   9.4990170
  31.0702041  28.7965662   9.4100392  31.3245014  27.3559362   9.7984898
  35.8913234  34.5697767  35.5689346  36.1532357  34.5200521  36.4882576
  35.0577215  34.1007978  35.5316746  19.2678264  29.5209104  37.5283634
  18.8025668  29.8458082  36.7575180  19.0576747  30.1505644  38.2180035
  93.6741163   9.2733318  18.2501232  93.6862089   9.3300564  19.2055714
  92.7611293   9.0849049  18.0329144  83.7468577  88.1759126   4.4413197
  84.2013312  88.3722265   3.6220848  83.1378556  88.9051039   4.5580589
 106.1180522   3.5866386  36.5078365 105.4368092   4.2590267  36.5133392
 106.7203976   3.8502533  37.2034752  52.8367519  72.1223831  84.7352791
  52.4855947  72.8980637  85.1725864  53.1121588  71.5484858  85.4501343
 105.6190564  35.3848631  18.8307583 106.3822056  35.5141050  18.2676136
 105.3485157  36.2701113  19.0744030   9.7836736   0.5538780   8.7384140
   9.6554282  -0.2611082   9.2237866   9.6612838   0.3083021   7.8213799
  10.6515649  26.1997110  53.2044995  10.3725436  26.4825136  54.0753662
  11.5642885  25.9352762  53.3195507  36.9741157  34.7067243   3.1719505
  37.8707460  34.8565466   3.4716808  36.4421991  35.3009874   3.7012398
  15.6677535  16.2465221  10.2416241  16.4301208  16.4695293   9.7074997
  15.2109006  17.0784027  10.3660977  66.9748878 106.2731457  74.4122982
  67.1589661 106.7141819  75.2416563  67.5270033 105.4913998  74.4290352
  99.0800502  53.4152967  23.9352524  98.7846471  53.2446272  23.0409157
  99.8066451  54.0301878  23.8342583  17.2124388 103.8152106   0.9157192
  17.6328947 104.0173800   0.0799191  16.8432047 102.9406960   0.7927429
  45.7607797   3.9311439  18.9410507  46.5282491   4.4792349  19.1047871
  45.6145147   3.9995129  17.9975617  74.6195769  51.3146669  33.1536019
  74.3771397  52.2343523  33.0458176  74.3557574  51.1007196  34.0485108
  39.4557336  58.8517267  19.5224487  40.0377801  59.3980772  18.9942848
  38.8396934  58.4787924  18.8918602  27.1364406  44.8157007  49.5730793
  26.5331319  45.3030378  49.0120518  27.9271272  44.7141535  49.0432369
  56.7318439  68.7723112  79.7541380  56.8535709  69.6991968  79.5484591
  55.9547806  68.7509537  80.3126621  10.4337314  24.8417885  35.5895531
  10.8604387  24.2224581  36.1816513  10.5522445  24.4615061  34.7191727
  58.5420564  42.7239878   2.7237522  59.2624048  42.1901400   2.3885929
  58.9711431  43.4747393   3.1342137  85.3239250  24.1924739  80.5255890
  86.2692642  24.1102934  80.6513596  84.9994278  24.5282316  81.3611603
  45.0120881   1.9671232  25.5150616  45.3064302   1.5988285  24.6820271
  45.2483896   2.8933079  25.4642880  23.7806582  75.3801060  86.6837406
  23.3437324  75.9222126  87.3405933  23.3156681  74.5440388  86.7154217
   5.9168151  49.2722685  36.1025631   4.9962858  49.0138037  36.0572254
   5.9198907  50.1937372  35.8434879 112.2156335  90.4393823  37.3718178
 111.8622304  91.2051661  36.9191467 113.1236935  90.3832037  37.0743286
 100.2538921  17.5800974   3.2263863 100.1908948  18.4823305   2.9129612
 101.1575557  17.3246748   3.0409538  37.1943164  73.8036776  89.9493408
  37.4551654  74.6388626  89.5612049  37.2822165  73.9401197  90.8926773
  21.1161617  13.0162031  35.9693443  20.4034475  12.4919159  35.6041062
  21.4774850  12.4738771  36.6704571  96.7908861  10.1886541  11.1216747
  96.9171120  11.0079081  11.6003334  95.8483078  10.1485474  10.9599125
  27.2820237  19.6144230  56.0064137  26.7422012  19.7349436  56.7876255
  28.1268791  20.0007040  56.2371552  23.8413957  18.6828310  12.9877388
  24.6049932  19.1341240  12.6278984  24.2086318  17.9673750  13.5068619
 102.9201462  37.7882654  28.3853638 102.1751262  37.4107344  28.8529598
 103.1664850  38.5532934  28.9052403  37.3063087  88.8073158  83.2360268
  36.5330291  88.2500648  83.3240604  37.0541763  89.4664478  82.5893402
 107.9405047  21.6666014  47.9027760 106.9914486  21.5909368  48.0017578
 108.1079795  22.6089842  47.9127705  76.0265255  82.9745770  90.5222797
  76.6886568  83.6323357  90.3097343  76.4133644  82.1455860  90.2405739
  43.1889165  93.4822114  10.9458649  42.7723510  94.1096671  11.5366280
  43.5543407  94.0204890  10.2437508   6.5278772  47.3913366  55.2624714
   5.5835393  47.4098856  55.4177773   6.8767312  46.8517477  55.9719574
  39.3283463  59.3561506  88.4502220  38.4886241  59.7133446  88.1612396
  39.6659255  58.8894176  87.6857376  65.6362489  27.1819097   4.7804653
  65.5799917  26.3198740   4.3682015  64.7511342  27.5394232   4.7097981
  30.2924398  13.9465935  15.7069599  29.9950174  14.3399555  14.8865711
  31.0439208  14.4784290  15.9689819  65.6145144  93.6884403  88.9488602
  65.8165312  93.3077049  89.8035336  65.6952429  94.6328545  89.0822506
  27.3935512  14.8272974   6.4551460  27.6208213  15.0373632   7.3609364
  28.2348588  14.6638328   6.0288632  34.1778758  18.0472261  13.6182701
  34.1522601  17.0918257  13.5655033  34.4395593  18.3285934  12.7415859
  18.3097649  79.0820456  88.4944439  18.8685572  79.7704458  88.1337643
  17.4186158  79.3649197  88.2893372   5.4834560  10.8420927  19.9483597
   5.3744081  11.7698986  20.1569569   4.5963147  10.4839117  19.9786484
  59.3170881  73.4773922  78.1247663  59.5795202  72.9132366  77.3973799
  58.5236406  73.9140892  77.8149843  63.8483810  88.5666561  51.4109993
  63.3386374  87.8174019  51.1027575  63.6920595  89.2479992  50.7571077
  38.0774024   2.9863197  47.4804699  38.9570669   2.8920776  47.1150314
  37.8327373   2.1002466  47.7473843  54.9075079  83.1313801  82.7196598
  54.1083479  83.6492538  82.8165722  55.5813694  83.6452866  83.1646824
  35.6666711   7.1551544  37.9999172  35.8761314   7.3180658  37.0802414
  34.7108510   7.1899874  38.0376827  34.5178655  13.3637363  53.1487095
  35.1765588  13.4644682  53.8358795  35.0213626  13.1453878  52.3644554
  88.8966431   0.6478149  26.2926685  88.4060969   0.7300407  27.1104920
  88.6231293  -0.1960772  25.9331238 101.6730859  42.6907904  25.2107346
 102.2313120  41.9132978  25.2002251 101.1463548  42.6182348  24.4147885
  40.8825782  47.9544336   2.2841656  40.6821492  48.0981714   3.2090485
  41.7813876  47.6252443   2.2822201  71.6202784 101.8454170  81.3501740
  71.4500237 101.2079525  82.0436382  71.4142990 102.6917744  81.7470169
 108.5081793  20.0056059   2.5775540 107.9522897  20.0714571   3.3540165
 109.3977620  19.9398167   2.9247486  28.8376954  48.1724531  31.0347664
  28.8811544  48.3838159  30.1022064  28.1581119  48.7513430  31.3801396
  15.1413730  30.0707514  35.4344952  14.2775205  29.9152357  35.0526535
  15.2519372  31.0208303  35.3978169  52.9482892  46.0952932  12.8686440
  52.6663450  45.1809771  12.8408444  53.8939813  46.0501272  13.0095493
  45.2378035  74.1558170  82.4664021  44.4519234  73.8579941  82.9245853
  45.0272465  75.0456095  82.1832657  54.2393064  72.2903252  91.4636040
  54.8636246  71.7684889  91.9677353  54.1633415  71.8308783  90.6273270
  76.8305500  11.8752129   3.4099209  77.2449410  12.4349434   2.7532494
  76.1778508  11.3745911   2.9204380  69.4431282 105.2507622  21.9358647
  70.1263262 105.7428868  22.3911583  68.6858416 105.8362086  21.9358647
  35.9874442  23.8821775  25.3227532  35.1397136  24.3038160  25.1819813
  36.4639142  24.4864637  25.8920014 102.9087426  17.2185976   2.5805199
 103.8594152  17.3228533   2.6203358 102.6094724  17.9531414   2.0446884
  97.2795486  62.2285938  69.0584850  96.7807102  62.2098351  69.8752069
  97.4745560  63.1551552  68.9181662 110.9391047  31.5759832  57.1989739
 111.5878417  31.9587690  56.6083443 111.2762429  30.7007677  57.3902142
  14.8929981  32.6455957  30.8664429  15.2091840  32.7043707  29.9648869
  14.9981216  31.7226583  31.0974419   0.3613713 100.2754338  27.1634304
   0.3661635  99.6512253  26.4377701  -0.5600593 100.5117447  27.2700035
  31.3203290  14.3268520   0.9167301  31.7518428  13.6428959   1.4288151
  30.6172517  13.8715918   0.4534256   7.4540141 106.6039784  14.3653309
   7.8913405 106.2237437  15.1271736   6.8758585 105.9094841  14.0496552
  30.8976224  16.4041645  48.8303768  30.0335458  16.2977487  48.4325325
  30.7184604  16.5292484  49.7623074  -0.3161165  35.8949739   7.2462284
   0.0329951  36.7174799   7.5894940   0.4575709  35.3544123   7.0867264
  33.1467298  32.2220213   6.9687950  33.0494932  32.5937063   7.8455174
  33.4530738  32.9525930   6.4315426  19.7638849  11.5659506  18.7283146
  20.5493930  11.0742075  18.9678967  19.3475393  11.7745478  19.5646012
   2.6441433 103.3666213  31.3187802   2.0537665 103.0326779  30.6433785
   3.2052710 103.9910777  30.8589756  49.0218496  51.3704395  84.9214077
  48.5501575  52.1037674  85.3163338  49.8204613  51.7619991  84.5676708
  80.5628014  77.1154594  89.9762058  81.1597443  76.6780281  90.5832863
  80.5152416  78.0168247  90.2948093  38.7116817  25.4873497  36.9639694
  39.4449809  25.0904257  37.4340164  39.0110687  26.3725788  36.7566788
  87.4923302  29.7630388  25.7863438  88.1413616  29.3113596  26.3257706
  88.0079438  30.3459627  25.2290547  58.6708093 102.8490527   4.7300923
  58.8014198 102.5804217   3.8206875  59.0490962 102.1375401   5.2466976
  60.7123947  83.0763912  78.3952045  61.5416765  82.7191257  78.7128210
  60.7215881  83.9908314  78.6779737  84.7311545 105.0880845  16.2278855
  85.3453303 105.3646262  16.9079888  84.3021108 105.8971150  15.9492790
   1.8444827   4.7122747  11.2682736   2.7737716   4.9119598  11.3813221
   1.4352253   5.5618174  11.1039078 112.7710916  35.8492834  23.0342209
 111.9011952  35.9836656  22.6581299 113.3529474  35.7892496  22.2765553
  98.4884812  51.2918360  25.7269776  97.5336148  51.2707693  25.7903683
  98.6736466  52.0281870  25.1441204  62.1501255  76.2666559  83.5945034
  62.3336744  76.6561270  84.4494057  62.7998018  75.5694866  83.5044575
  35.3105664  75.6124449  86.7205429  36.2564182  75.6277514  86.5743828
  35.0469875  74.7215748  86.4900875  80.3550911  59.6730518  92.1111202
  80.7431793  59.6642256  91.2361717  81.0934830  59.8321819  92.6990604
 103.9743997  62.5325853  23.2936775 103.2980539  62.9179747  22.7366650
 104.7823312  62.9719145  23.0282128  14.1303495  32.1206457   8.6588204
  14.8292211  32.6983053   8.9656174  13.4763530  32.1439917   9.3573773
   6.3610318  29.3488485  50.2838051   5.8639291  28.5438234  50.1386845
   5.6989196  30.0399668  50.2978146  19.0557578  17.5711185  34.9859345
  18.7247709  16.7053348  35.2248966  18.3076814  18.1556446  35.1081669
  13.5602477  12.0314438  15.5427277  12.6832107  12.3010332  15.8154213
  14.1064218  12.1763689  16.3153374  37.6553682   7.5178511  19.5891487
  37.2331479   8.3630783  19.7425949  37.3139385   7.2297413  18.7425911
  65.1337148 106.0849221  12.4446785  64.8098493 106.4025099  13.2875836
  65.4757596 105.2110560  12.6333630  18.5558569  65.3119278  86.3156605
  17.6111221  65.3565550  86.4630318  18.8633966  66.2067270  86.4605427
  43.8533452  11.3641865  39.3908894  43.6933378  12.2649557  39.1093838
  44.7150758  11.1508686  39.0328991  21.6805604  43.0406076  22.8248512
  21.8448547  42.1696836  22.4632847  22.3922971  43.5807020  22.4813950
  49.9725869  27.3876841  22.5280201  49.6176103  26.8729383  23.2527649
  49.2398408  27.9315931  22.2390949  84.3406773 105.5667574  25.4101669
  85.1518632 106.0155566  25.6484711  84.5799638 104.6405060  25.3779900
  62.3774195  73.6538935  76.7153502  63.1293344  74.1037226  77.1007252
  62.7161789  72.7953482  76.4616299  56.1007786  61.3896608  86.5751934
  55.2045298  61.1645842  86.8248081  56.0570002  62.3148966  86.3338375
  40.0042534  61.4467192  90.6834412  40.5804014  62.1276522  90.3361416
  39.8288178  60.8766413  89.9347973 106.4634873  23.5335810  26.0493385
 106.0043289  24.3577463  25.8875954 106.4015557  23.0583031  25.2207768
  54.9191380  99.1503429  64.5728302  54.8582983  98.4075356  65.1734829
  55.5040646  98.8489437  63.8776684 104.6012999  41.2575418  44.8475563
 105.5153419  41.2835962  44.5645725 104.2697050  40.4254515  44.5100605
  12.4093151  93.4705162  85.3121662  12.2648871  93.3961773  86.2554836
  13.2465398  93.0312538  85.1626968  85.2932453  90.5546856  90.7301998
  85.9046364  90.7381725  91.4434814  85.6066704  89.7334099  90.3513908
  68.9510680  68.9507587  16.1176216  68.2989741  69.6250172  16.3083565
  68.5848332  68.4657402  15.3781140  47.4621537  19.1594631  12.7117741
  46.5970472  19.1842014  12.3028385  47.2819856  19.1117746  13.6506474
  32.7623657  50.8653337  35.3175556  31.8868497  50.5196077  35.4912769
  33.3098748  50.0876505  35.2095043  46.2295965  62.5518782  49.1966355
  46.4860013  62.0132238  48.4480774  46.7228082  62.1895010  49.9326050
  30.7338289  31.6485960   5.5296814  30.7034162  30.7489473   5.2041828
  31.6103843  31.7385179   5.9035694  19.3709186  33.0190260  46.3514340
  19.4244769  32.4639112  47.1293842  19.5411399  33.9032919  46.6759979
  19.1053775  52.9972631   5.7153618  19.4212201  53.8998777   5.6734764
  18.3303550  52.9883940   5.1536667  90.9080791  95.0545788  65.7790565
  89.9846935  94.8298836  65.6646252  91.0982513  95.6588268  65.0614548
  48.3337453  69.0885145  20.8966171  47.8441003  69.5950205  20.2485859
  47.6881364  68.8727648  21.5695774  21.2526801  34.0637667  27.6431763
  22.0404390  33.8207704  27.1567452  20.8687499  34.7787268  27.1355736
  17.6349262  33.0947000  25.6324112  16.9123510  32.6488764  25.1904308
  18.1797651  33.4312040  24.9209702   6.8973783  33.8092787  20.6918633
   6.3198617  33.4312708  20.0286781   7.7806047  33.6517698  20.3582012
  23.5791829  30.7440264  37.8977883  23.1506875  29.8881037  37.9016030
  24.5110658  30.5457670  37.9900753   7.2270778  67.2470266  26.0412895
   7.9728511  67.7746946  25.7555973   7.3847106  66.3833219  25.6600010
   5.7835630  50.8829767  28.9362347   5.2724746  51.2364942  28.2081997
   6.6792491  50.8398039  28.6013996  97.3854782  30.0275213  22.9960262
  97.8364708  30.8671839  23.0844128  97.8715874  29.4332201  23.5676396
  31.4603332  51.1896593  17.8872788  30.8451942  50.4662973  17.7664959
  32.2653249  50.7711012  18.1922924  19.4312528  48.9820272   7.4129402
  19.0101007  49.8396189   7.4713623  20.3622440  49.1630918   7.5421726
  85.7222224  99.3198712  11.4519131  85.8515263  99.7375996  12.3033917
  86.4563228  98.7111123  11.3698303  44.2609406 105.3404522  85.6722069
  43.6182356 104.6866703  85.9474087  43.7547970 105.9752750  85.1652050
   6.1556724  28.9420301  37.3204338   5.9213546  28.0895311  36.9535839
   6.5939954  29.3992884  36.6027844  54.1950467  37.4383146   0.2357304
  54.3874028  38.2986624   0.6085980  55.0545839  37.0594103   0.0517094
  45.2907613  39.2234308  29.5525753  44.8120931  39.3236238  30.3754151
  44.7197870  38.6817915  29.0077412  24.4059327  20.8515961  18.8784229
  24.9632695  20.2067406  19.3140423  25.0072053  21.3576300  18.3319485
   7.0718721  35.4678804  41.1225331   6.5104440  35.2035696  40.3937161
   7.6602367  36.1225683  40.7464420   5.9224227  30.4548914  22.1598828
   6.3316253  29.7845156  21.6127312   5.2759078  29.9777204  22.6800358
   1.7338494  18.2060797  22.2450268   2.6575330  18.3658583  22.0513642
   1.3098505  19.0527660  22.1051037  39.4681457  59.9104483  48.2134068
  40.3408244  60.3035337  48.2011902  39.0563157  60.2163870  47.4053013
  19.3026689  18.9243681   4.6413529  18.4628681  18.6863405   4.2485249
  19.9103215  18.9625675   3.9027607  39.5379689  38.3667547   9.6934902
  39.7687438  37.6286394  10.2575409  39.2693952  39.0568621  10.2999985
  33.9127016  72.9659557  90.6930161  33.0309606  72.6981068  90.4341412
  34.4258046  72.9120398  89.8867607   6.5955164  91.7483575   0.4476082
   5.9894373  91.4423735   1.1223423   7.2201540  92.2996600   0.9189140
  58.0257750  88.3032990  58.2381964  57.1970367  88.5508156  57.8281260
  57.8174973  87.5178623  58.7441111  22.1541599  41.6414911  16.6628563
  21.8564370  41.6007597  15.7540524  22.9488042  41.1080915  16.6787064
  99.9329569  26.1727602   7.4597275  99.9118568  25.3376991   7.9271137
 100.4540064  26.7478067   8.0201351  61.1671499  23.2922155  47.0613968
  61.7452958  23.7960083  47.6342499  60.8484128  23.9295847  46.4223301
   8.7827161  51.8015081  16.3501274   9.0972856  52.7000601  16.4495957
   9.4405130  51.3770563  15.7993328  97.6444530  82.1048737  88.0453300
  97.3295593  81.5405846  87.3391819  98.5916519  81.9674110  88.0574608
  15.2053216  48.5131723  11.3725674  14.8959592  49.1530020  10.7313645
  16.0018304  48.1510050  10.9844315  41.9582847  36.5373976   1.4664280
  41.0485938  36.7609198   1.2696182  42.0106319  35.5933554   1.3171589
  25.1462224  37.8691751  13.2694733  25.1612905  37.4645121  12.4021446
  24.4815925  37.3773081  13.7517368  86.4403439  82.4480534  66.4099360
  87.0888329  82.9967213  65.9687281  86.8890095  81.6146469  66.5526342
  32.6445821  27.0602114  11.2959969  33.2823280  26.4686424  11.6954434
  31.9752410  27.1809561  11.9695198  53.8800958  35.5302507  46.5717041
  53.5947278  34.8713476  47.2046768  54.7115758  35.8523733  46.9196999
  46.6035226  20.6285412   9.5552742  45.9778932  21.3038999   9.2931473
  46.0781148  19.8321087   9.6319115  12.2404388  42.0528013  37.4479592
  12.2606138  42.9531366  37.1235573  13.0838254  41.6844541  37.1848023
  46.7978242  30.9768469  13.6990845  47.5971750  30.7225592  14.1601860
  47.1061567  31.3512880  12.8738796  63.9128927  36.5340883  12.2388374
  63.2095960  36.8604071  12.8001892  64.5524743  36.1636621  12.8470623
  87.6072121  90.6159687  67.4010229  86.7305946  90.2319622  67.3829985
  87.5300312  91.4137459  66.8777418  97.6514817   9.9957847  82.4454784
  96.6961575   9.9366569  82.4550819  97.9204512   9.4121837  81.7360401
  87.0263100  98.0322838  81.1272717  87.6146793  97.5239468  80.5690193
  87.6046848  98.6233616  81.6092873  28.7205461  38.6788446  25.4063236
  28.8353685  39.1979868  26.2022698  29.6104816  38.5309870  25.0863468
  77.9824972  47.4619436  74.4007587  77.6590919  46.6559362  74.8032475
  77.9685211  48.1056738  75.1090288  44.9411157  29.5201570   6.8657028
  44.9085000  28.8621981   7.5601494  45.8522561  29.5138819   6.5724098
   9.9968818  25.2706797   8.7527477  10.3718141  24.3904001   8.7804424
  10.5485538  25.7846434   9.3424427   8.8043454  18.6213810  11.5373242
   9.3587163  17.8697998  11.7471516   9.4209197  19.3321115  11.3614571
 112.6874162  20.7892162  32.0250618 112.2978951  19.9463970  32.2577870
 112.6478435  20.8155424  31.0690415   5.6574298  84.4707680  74.0541935
   5.7003452  83.5516930  73.7902117   4.8186733  84.7794724  73.7115335
  57.2984028  59.0340614  87.3006630  56.7874527  58.2474041  87.1100521
  56.7350769  59.7577906  87.0265961  23.8571027  62.0164473  32.7734577
  24.5280650  61.4936239  32.3344814  23.0523065  61.5085775  32.6704895
  34.5401099  65.4213602  37.1499741  34.9204067  64.6199400  37.5096142
  34.9135783  65.4903585  36.2713444  78.1719017 100.5835819  68.9641142
  77.9640913 100.1532936  69.7935152  79.1008663 100.8033752  69.0344810
  20.5899671  55.8755476  13.4006893  20.5334237  55.2237684  12.7019703
  20.9222511  56.6621477  12.9681599  56.3065580  27.2748835  20.2812779
  55.4006913  26.9716627  20.2205765  56.3506940  27.7308733  21.1217320
  33.4893945  43.9115126  46.8991196  32.8513816  44.4013960  46.3802921
  33.6396602  44.4569570  47.6712238  16.2473872 105.4432328  22.0205605
  15.3749373 105.7375605  21.7589390  16.2505438 105.5216486  22.9745400
  45.6594232  34.0595323  27.7490532  45.4734376  33.7422068  26.8653404
  44.8708108  33.8502771  28.2495892 101.1705519  47.9414160  30.4447663
 101.8803312  47.9437143  29.8025524 100.5026151  47.3729116  30.0615132
   6.3974670  54.8426706  52.5110352   7.1569160  55.4057104  52.6609146
   6.0692266  55.1070196  51.6516030   2.1608570  42.9026110  24.6320450
   2.4300817  42.7663595  25.5404389   1.2138394  43.0333597  24.6799481
   4.4147447  22.7533609  26.7809975   5.0951961  23.1343252  26.2259495
   3.6584237  23.3276541  26.6610253  31.2986711  34.8850424   2.8509152
  31.3843587  34.8635179   3.8040363  31.1350492  35.8055956   2.6458752
  60.0127029  95.0169277  82.9107666  59.9060345  94.5426559  82.0861912
  59.1590309  94.9488831  83.3383751  74.6176624  94.3298817  81.8441296
  74.0796518  93.9972973  82.5625801  75.4992247  94.0110493  82.0375919
  30.6534627  55.2130491  15.9692204  31.3277057  55.5649931  15.3880417
  30.4170945  55.9482939  16.5347111  22.2579958 106.3426621  12.9458439
  22.3955729 106.9219191  13.6953556  23.1268599 106.2444146  12.5564110
  87.1571112  99.3326743   8.0082524  87.4707127  99.9029667   8.7101376
  86.6445876  98.6602242   8.4569847  27.9173902  43.6523230   3.0799210
  28.4823325  44.4060404   2.9096996  27.3822692  43.9181311   3.8277352
  70.7970906  74.1508920   1.4941322  70.3181816  74.4415243   2.2702896
  71.6739965  73.9439590   1.8173229  82.0592232  23.5842974   9.8622048
  82.4525716  23.8561851  10.6914055  82.8050037  23.3623630   9.3047154
  48.8651848   7.4957901  62.4258566  48.9688826   7.8704381  63.3005667
  48.4863663   6.6302526  62.5793839  97.0262299  16.0424304  74.2760420
  97.4102055  16.6536081  73.6473465  97.0607232  15.1930475  73.8360500
  69.9067783  17.8145099  49.0991735  69.3331957  18.2710123  49.7146749
  70.1909733  17.0321441  49.5717955  25.1233292   0.2305707  41.8250990
  25.1471782   0.5641200  42.7219868  24.9884748  -0.7119503  41.9235849
 102.6545499  17.4861693  64.8346424 101.9935201  17.6801515  64.1700792
 102.9867564  16.6206205  64.5965338  76.5463209  -0.1644078  65.6679296
  76.3449097   0.7647854  65.5571795  77.4050999  -0.2736700  65.2595234
  73.5013176  80.5512793   9.3403351  74.3665791  80.4190905   9.7277367
  73.5609461  81.4019973   8.9056503  66.3934851   6.6401273  60.0305080
  65.9230137   7.3759389  60.4222584  66.5366793   6.0333931  60.7568693
  72.2624969  23.4178209  72.4739218  71.9090986  22.7972460  71.8365622
  71.6540194  24.1563988  72.4518919  61.8616415  97.6740105  18.4063732
  62.1430899  98.3341916  17.7729809  62.3673654  96.8935902  18.1796181
  75.6779958  68.8133187   6.4804089  75.2229906  68.8546188   7.3215305
  76.5274001  68.4230907   6.6864884  78.3665324  87.9508669   0.2877056
  78.0154420  87.2093589  -0.2053821  79.3087674  87.9246695   0.1211464
  35.7747316  29.0770221  74.6369362  36.5492940  28.6230063  74.3050432
  35.0651956  28.4417629  74.5408249   8.1278354   6.9026840  91.7680073
   8.0164975   6.5464419  90.8865738   7.2973102   7.3396856  91.9563961
  70.6745220  57.6017941   6.0058987  70.2740146  57.5925378   6.8752396
  70.8830214  58.5225768   5.8480465 110.4683421  88.7368537  81.4712811
 110.2106426  88.8982726  80.5636692 111.3202999  88.3055282  81.4052677
 103.5717342 104.5037498  70.8474874 104.0937517 104.4194940  71.6453791
 103.0502555 103.7016643  70.8166313  38.0753126  84.6812851  14.4384014
  37.9888139  84.0663130  13.7100041  38.9708294  85.0118644  14.3676960
  27.8340554  29.8437309  91.8313599  28.7018442  30.2140331  91.6699600
  27.5273585  29.5669913  90.9678936   7.7399349  15.0736773  74.4269133
   7.5601453  15.7320285  75.0980902   8.1889457  15.5559087  73.7325954
  50.0794543  66.6704531   8.5747444  50.2172519  67.5979860   8.3825791
  50.9587777  66.3241155   8.7266457  64.1363502  65.7052441   1.7491924
  63.4491397  65.3541000   1.1829102  64.1695047  66.6377182   1.5355885
  37.2142696   5.5747879  53.3549356  38.1700563   5.6206298  53.3794260
  36.9376707   6.4623815  53.1271124  15.3692340 106.3871378  77.5282526
  15.9512948 107.0382500  77.1364737  14.5344781 106.8438520  77.6322699
  86.6259612  10.7655889  14.6843064  87.3281993  11.3714678  14.9209511
  87.0800091   9.9807341  14.3775952  38.1363821  76.4484072  89.2502213
  37.8115916  77.3233604  89.0376091  38.7254333  76.2295914  88.5281563
  65.8020687  45.3612614  83.8492489  66.1452961  44.6886683  83.2609844
  65.6617022  46.1227131  83.2864666  22.9837085  94.2852910  14.3141567
  23.5165585  94.4687064  15.0878918  23.4452237  93.5749800  13.8684094
  92.4971629  52.7014186  24.3276322  92.8352500  52.9950928  23.4816467
  91.8090630  53.3312436  24.5422756  59.1029788  71.3579364   0.1427757
  58.9589215  70.5666537   0.6617653  58.9848591  72.0765789   0.7639324
  28.0539870  15.4879606  72.1800947  27.7490139  14.6993208  72.6287270
  27.6752663  16.2102103  72.6812506  70.1819897  55.6525660  84.2124939
  69.3037367  55.4030323  83.9250278  70.6638336  55.8106804  83.4006691
  32.4417281  49.3633080  75.8126450  33.3526850  49.5421791  76.0458660
  32.2536659  49.9714470  75.0977802  64.1840196  97.8232367   7.0281326
  65.1259113  97.8161414   7.1984970  63.8958789  96.9350035   7.2384846
  68.2923555  22.4832654  88.5503864  67.9926014  23.1215096  89.1977024
  68.6800241  23.0128288  87.8535938  10.8295429  26.3308024  84.7147369
  11.6157258  26.6465497  84.2692566  10.7222569  25.4321408  84.4030762
  80.9946538  72.4094517  27.9822075  80.5250979  71.6423769  27.6545632
  80.7912494  73.1015677  27.3530495  67.1401335  50.9412956  12.2004044
  67.6290346  51.6425074  12.6311123  67.8128911  50.3945882  11.7945206
   5.4327296  97.9525281  66.3291979   6.1930036  98.4842241  66.0935783
   4.7410583  98.2479925  65.7371426  15.9931242  13.9097524  85.1039505
  15.7934022  14.1847920  85.9987640  16.9087493  14.1576743  84.9759007
  81.6216660  11.4500463  62.3918724  82.1516228  11.3486242  63.1825018
  80.7485199  11.6715467  62.7155876  22.1098781  36.5616274  82.3530674
  22.9067326  36.1329532  82.6653004  22.2517204  36.6756201  81.4133167
   9.0917981  30.9238482  70.8548594   9.4664472  31.2729740  70.0461721
   9.5477659  30.0933194  70.9910440  40.8959246  42.5675869  85.3163433
  40.7395983  43.4344292  85.6910229  40.8686113  42.7073097  84.3697929
  21.9575810  43.6334658  87.1792126  21.9424152  44.5837641  87.2929382
  22.4697137  43.4957552  86.3823509 108.0508868  27.6958871  84.3447876
 107.7411042  27.1351218  83.6335850 107.9952572  28.5837054  83.9913559
  56.7537165  18.0011678  85.0669289  56.9405460  17.5912035  84.2223835
  55.9246635  18.4602273  84.9321461  78.7489129  68.1926126   1.1270535
  78.8834334  68.5001285   0.2306282  79.5294429  68.4823544   1.5993321
  46.2396574  30.2981257  91.7718029  46.5150833  29.8094916  92.5474358
  46.9657040  30.1990032  91.1559582  43.6086882  81.8365796   7.7093231
  44.4806606  82.2134573   7.5916016  43.0224723  82.4433501   7.2572052
 105.9567616  87.1005953  73.8536644 105.7935116  86.5674663  74.6317101
 105.2004836  87.6849533  73.8007307  53.7476135  90.2887805  30.1144993
  53.8808716  90.9919460  29.4788563  53.2682348  89.6162207  29.6306717
 112.4235930  31.7733073  76.3720751 112.6410205  32.5153708  75.8079004
 113.1383834  31.1513996  76.2359142  70.6285048  64.1800745   3.4503281
  69.7899223  63.7204559   3.4923565  70.4523898  64.9508746   2.9108059
  63.7497068  92.2521932  24.0487396  63.4672070  91.4813025  23.5566532
  64.0183402  91.9075234  24.9003708 111.5502757  10.4691672  47.3179626
 111.6351059  11.4144707  47.1937132 110.9930228  10.1815927  46.5947723
  63.1169201  66.1778183  10.7763588  63.8413668  66.1578400  11.4016640
  63.3172966  65.4776402  10.1552021  92.3473740  74.8677857   8.7796318
  91.5962411  74.5884402   8.2561886  93.1097461  74.6026118   8.2651436
 101.0461642   7.3064405  33.2334435 101.4097788   7.8223211  32.5138008
 100.4502346   6.6894800  32.8086388  29.6164656  44.0388489  37.3443365
  30.4999208  43.6717319  37.3753905  29.0435672  43.2771683  37.2556639
  10.4868340  41.9722700  72.9844141   9.5565736  41.9896698  72.7595949
  10.7285392  42.8939772  73.0753708  95.8537195 100.9496034  79.0113640
  96.4594100 101.0462136  78.2764912  95.0449965 101.3645471  78.7113285
  22.5293458  89.6580966   3.1235706  22.4482847  88.9053209   3.7092316
  21.6431237  89.7988422   2.7903568  96.7310048  52.6633879   1.2052452
  96.4038087  53.2779360   1.8621361  97.4141026  53.1486524   0.7425034
  28.0208468  60.5518770  89.7404099  27.5346398  59.8868084  90.2277756
  28.1908345  60.1485205  88.8891506  81.0883332  63.8640780   8.8136303
  81.5089417  63.0085934   8.9000237  80.2881528  63.7911875   9.3338501
  83.7934876 100.7534726   3.4207260  84.3450976 100.0006230   3.2081806
  84.4121075 101.4441569   3.6584103  74.0314079  61.5803213   1.5152752
  73.4009076  62.2542835   1.2613594  74.0619613  61.6287173   2.4707615
  40.1785421   0.7204667  74.1672182  39.5514083   0.8298688  74.8820353
  39.6392608   0.5047234  73.4063864  73.2398582  84.8489721   3.9982617
  73.1894613  83.8931019   3.9962399  72.3964525  85.1340277   3.6466324
  32.3712135  82.9889925   5.8600056  32.5916792  83.2632501   6.7501843
  33.2168762  82.8994043   5.4206192  84.5917464 105.7519562  31.3594258
  84.1211987 106.4138682  31.8660652  83.9065314 105.1697714  31.0311329
  65.8649183  88.1390078   7.3235523  66.5130354  88.2152493   8.0238163
  65.5089022  87.2559292   7.4218094  70.1894809  41.7923410  31.6123211
  70.9958030  41.2825806  31.6911804  70.3974415  42.6338418  32.0183479
  78.1388808  97.2808344   4.3109810  77.3689891  96.9309933   3.8625347
  77.8106261  98.0390961   4.7942173  20.2821159  17.1302104  72.8975153
  20.1715446  16.1925709  73.0551147  21.0558844  17.3692393  73.4077930
   6.6920570   7.2473986  16.5398800   6.2815908   7.1073324  17.3931896
   7.4268773   6.6341907  16.5240204  46.2613010  15.7266045  45.3962755
  46.7187548  14.9035418  45.2244234  45.9935284  16.0369301  44.5312738
  44.7625185  90.5307443  28.6256897  44.9178458  89.5932395  28.7405502
  43.8114441  90.6085093  28.5505783  59.1322803  39.3207216  70.5299950
  59.8596621  38.8871694  70.0836945  58.5808945  38.6032128  70.8420515
  30.6540778  11.6237766  17.6208889  29.9521068  12.2612125  17.4899685
  31.4335922  12.1555454  17.7815354  75.6009293  84.7249253   5.1904022
  75.2091838  84.7084982   6.0636151  74.8600531  84.8523576   4.5978653
  97.4506665  91.4425285  18.9828789  98.1775142  91.6708262  19.5623600
  96.9212247  90.8294613  19.4928467  26.1149395  46.5666790  26.8713200
  26.1974765  45.6245704  27.0191395  26.8799067  46.7941196  26.3428032
  92.3387502  49.6336937  60.3495216  92.2388528  48.6821413  60.3777027
  92.2716020  49.8541594  59.4204760   7.4667171  24.9217302   0.2076256
   8.1535295  25.3448183   0.7229054   7.4869540  25.3740913  -0.6356991
   7.8911853  36.2729645  87.3446178   8.7367165  35.8258867  87.3824215
   7.6450956  36.3978481  88.2611752  59.8507738  32.8439617  76.5759420
  59.1157913  33.3926845  76.3021946  60.3741121  33.4101343  77.1432114
  34.7626209  43.1394482  78.0902052  34.6427226  43.6592722  77.2954512
  35.7042122  42.9711676  78.1265593  29.8705029  41.7202759  64.8310041
  29.0036321  41.4175940  65.1014709  29.8318744  41.7338037  63.8746786
  66.5385629  83.2063277  18.1374943  66.5406276  82.6643522  18.9264691
  65.6681157  83.0775197  17.7607071  87.4240352  90.8507092  43.9135754
  86.4813662  90.7468994  43.7838185  87.5330973  90.8806856  44.8640644
  67.8583194  75.7242186  27.5164425  68.5422064  75.1820285  27.9095852
  68.3299638  76.4629180  27.1316063  78.4307242  86.0698922  21.5341103
  77.9572202  86.1511071  22.3620236  78.2875729  85.1627285  21.2643158
  16.3545134  82.6969416   9.8493874  16.7528727  83.5512526  10.0158226
  15.9567931  82.4513085  10.6846821  32.6164937   9.5618308  84.1526031
  32.6049137  10.2978110  83.5406971  32.4731469   8.7912512  83.6031628
  57.1801103  84.4667752  15.6323635  57.5627530  84.7711546  16.4552700
  57.5462163  83.5912306  15.5073845  44.1282696 105.6037838   7.7438461
  43.9488567 104.6733124   7.8790104  44.9780984 105.7468302   8.1604588
  32.7291560  26.7026830  86.9927502  33.1946754  26.8728328  87.8116322
  32.2312641  25.9028792  87.1620083  86.9228984 102.0203574   6.7081272
  87.2065354 101.1073239   6.7545521  86.2054969 102.0806677   7.3389446
  88.8582326  79.4620688   6.9749558  89.4879247  78.9222915   6.4970886
  89.0263129  80.3534563   6.6693318  73.1493665  96.0793431  10.6588471
  73.5835291  95.8791096  11.4880860  73.4154273  95.3713877  10.0721275
  40.7577896  44.7899294  87.4015522  41.7109919  44.8020840  87.3150063
  40.4734373  45.6278229  87.0364380  75.6154848  80.9178646   6.0197842
  74.9163795  80.2652509   6.0595238  75.3318287  81.6094286   6.6177094
  73.6811090 100.4700024   5.9641087  73.2975889 101.0370476   6.6331398
  73.9177967  99.6707041   6.4345658  78.0303002  77.7776010  38.3579647
  78.8503791  77.6120622  37.8928864  78.1069947  77.2709806  39.1664803
 109.8343564  98.1250651  33.8673699 108.9047099  97.9807599  33.6908447
 110.0258590  97.5623257  34.6176254  24.3912271  17.1258814   7.6819050
  23.7263826  17.1474440   6.9936192  24.0103391  16.5748388   8.3656513
 106.0978986  87.2775753  13.5854160 105.8285523  88.0378659  13.0700123
 105.3258992  86.7118366  13.5991394  68.9945675  79.2589099  30.3747475
  69.5762063  78.9112074  31.0507881  68.3575893  78.5604198  30.2244007
  85.7998277 104.5436366   8.0076706  85.1068259 104.6985276   7.3658096
  85.3472567 104.1679175   8.7628185  77.8211881  74.9315436  23.0385410
  78.5470582  74.4427760  23.4264290  78.2435513  75.6167157  22.5204861
  36.2873519 105.7349093   0.4998409  37.1574885 105.6015666   0.8757603
  36.1312193 106.6754420   0.5849945 110.8620808  97.4164975  84.5474434
 111.1136673  97.8135986  83.7136269 110.1620219  97.9788411  84.8789883
  25.0816560  45.8273840  65.6825733  25.7738185  46.4329863  65.9478807
  24.4003153  45.9369516  66.3459015  61.6646434 105.0492032   0.0827515
  60.9479762 105.4076035   0.6063664  61.3567139 104.1829045  -0.1835907
  69.6015263  82.9223902  18.0499565  68.9778281  83.1263073  18.7468350
  70.0073815  82.1002109  18.3247864  58.9455795  30.1773167  66.9148588
  58.6798525  30.9549212  67.4057245  59.4303560  29.6482515  67.5483513
  79.9790097  72.5520856  10.6959545  80.2849961  73.4341867  10.4849922
  80.7034398  72.1568854  11.1809742  65.5357672  93.6878903   2.0402348
  65.3792334  94.0003331   1.1491024  64.9881936  92.9068310   2.1198380
  19.3835067 104.0160457  86.2392426  20.2040147 103.6462397  86.5651989
  18.9544534 103.2879133  85.7898426  98.1441356 101.1950047  32.7012169
  98.5875417 100.5588849  33.2624447  97.6602221 101.7542536  33.3089268
  85.0015307  67.4986942  19.3251240  85.5444337  67.5751491  18.5404884
  85.2724744  68.2328637  19.8763191  37.0014405  29.0847754  79.3981791
  36.1681414  29.0965033  79.8690367  36.7687583  29.2967415  78.4942055
 111.7263795  99.2531950  25.3679287 112.4429704  98.6535866  25.5757820
 111.4504958  99.0004284  24.4868862  29.5760202  60.6230879  77.2324800
  30.1858473  59.9474096  76.9361639  29.5624113  61.2624502  76.5202522
  15.2486575  12.0967209  80.8892441  15.6712413  12.2645724  80.0469303
  15.4713786  12.8581071  81.4248848  62.6079655  40.6328630  91.1364555
  62.7428722  41.4651012  91.5896797  62.0135546  40.1438618  91.7054749
  94.1795302  68.2736177  42.0666325  93.8935805  68.6532719  42.8974926
  93.3757544  68.1853969  41.5543854  98.5377837  89.0378530  14.9350941
  98.0939771  88.9641054  14.0902054  98.3709336  88.2001932  15.3672039
  18.2205021  15.3834713  76.9453859  17.3659134  15.3161192  76.5195036
  18.0645502  15.9395850  77.7086973 106.3541747  85.2508528  32.1397030
 106.6908408  84.7015030  32.8475964 106.7803288  84.9138529  31.3516342
  63.1105757  58.2322693  83.8666439  63.9068985  58.4110069  83.3664799
  63.4029293  57.6834631  84.5943642  44.1172361  34.6212626  73.3182096
  44.1638231  33.6922812  73.0922556  44.9156713  34.7861004  73.8197660
 107.1726704  81.4309342   6.9166577 107.4527598  80.8519371   7.6255619
 107.8968669  82.0478685   6.8110096  49.0855075  38.2606573   0.5953896
  48.5971976  38.8950450   1.1201203  49.7480095  38.7831266   0.1433384
  40.2625751  39.7803521  58.4892130  40.7984304  39.3601036  59.1618824
  40.8779287  39.9823880  57.7844095  20.2514434  35.8635402  89.2772675
  19.8880601  36.2229729  88.4679508  19.7030330  35.1027846  89.4689178
  55.1276518 100.3659184   1.2281239  54.9406553 101.0733683   0.6110489
  55.6676031 100.7746394   1.9046032  56.8176556  26.4104772  63.8386822
  55.8712769  26.5383029  63.9039707  57.1826935  26.9690442  64.5249653
  19.5475876  51.3879776  69.7134781  19.1751480  51.3534498  68.8323832
  19.6437764  50.4705334  69.9689722  77.8611041  75.1215203  32.2958767
  78.3437110  75.6859620  32.8998005  77.3669196  75.7280023  31.7443382
  19.1630605  14.8675997  32.0187199  18.3260253  15.3087027  32.1637451
  19.0326598  13.9857609  32.3674023  48.9881706   8.4350532  64.8403072
  48.4758949   8.4663206  65.6482840  49.6485186   9.1194594  64.9487495
   1.9974950   8.4894926   8.2024395   2.7328780   9.0941650   8.3015263
   1.5038017   8.8327963   7.4576962  47.5363016  53.8198280  64.6918201
  47.4517965  54.6915627  64.3055964  48.1898403  53.3794641  64.1485023
  46.1731482  49.2599392  88.8215542  45.3964186  49.4388247  89.3515682
  46.3347101  48.3241415  88.9416027  20.6867170  26.7754459  85.3243065
  20.7278419  27.5813389  84.8094559  21.5634179  26.6847539  85.6976700
  58.7955666  25.5467558  90.8846569  59.1440248  24.9469304  91.5442085
  58.7152100  26.3842416  91.3411522  96.4250757   1.9875080  23.1090080
  95.8955123   2.0623238  23.9028561  95.9036256   1.4376909  22.5241768
  26.4360809  38.0046177  89.2039394  27.3609042  37.7820325  89.3106556
  26.2385392  37.7781367  88.2951450  55.0527156  61.3316585  22.5098431
  54.6120787  60.6603981  23.0308830  55.2126695  60.9120483  21.6645157
  65.7611228 102.1811707  12.9382240  65.8445025 101.5560992  13.6583340
  64.9133349 102.6013978  13.0827820  50.6834221  26.3689780  85.2429390
  51.0236454  26.2469363  86.1292744  50.1017618  25.6214666  85.1046276
  51.6636515  48.3336878  83.7617493  52.2177935  47.6880693  83.3231926
  51.7047358  49.1065979  83.1985855  66.2329412  94.6953852   6.8501484
  65.3553677  94.4964821   7.1765434  66.2050820  94.4523461   5.9247410
  75.2807999 100.6738169   1.5746987  74.7174717 100.2961190   0.8992493
  75.3302098  99.9980290   2.2507965  27.0445776  31.7452288  41.6234064
  26.4937449  32.0973945  42.3225451  27.9385900  31.9525266  41.8954325
 109.2432166  89.4128211  16.7336571 109.0915156  88.5645087  17.1502888
 109.0592337  89.2607195  15.8066952  33.6463904  10.8865666  35.8638644
  33.3641028  11.5313935  35.2152157  33.8892865  11.4073896  36.6293550
  17.0236337  50.9087753  68.3805799  16.8599784  51.4168262  67.5860167
  16.4439428  51.2963247  69.0363216  63.8494445  78.1507595  10.5120289
  63.6689592  78.1620700  11.4519894  64.4890095  78.8510520  10.3825009
  11.3566736   4.8133499   9.6185314  10.7219604   5.2461321  10.1895535
  12.2084955   5.0426895   9.9900543  40.2361917  19.2080927  52.1144009
  40.0625944  20.1267266  52.3198462  39.8973989  18.7258244  52.8686333
  89.4139828  -0.0398987   7.5927937  89.1948761   0.8902342   7.6482117
  88.6309566  -0.4897469   7.9101860  40.2437507 100.4557831  29.4107735
  39.3383221 100.1789792  29.5515167  40.1855251 101.1305363  28.7343514
  22.8032211  29.6295626   8.2906162  22.8594354  29.3023855   9.1884148
  22.0426801  29.1820223   7.9197895  32.7017879  64.6968651  64.0771723
  32.1512866  65.2100086  63.4856844  32.9014945  63.8993216  63.5869980
  28.9320091   5.0437862  35.7857430  29.5852044   5.0692923  36.4849674
  28.4070543   5.8329374  35.9194767  60.7489992  77.4009306  47.4473107
  60.8537150  76.5218456  47.8112805  60.1820684  77.2788937  46.6857826
  73.1186390   8.4437913  60.5537271  72.3757553   9.0015203  60.7845879
  73.6743116   8.4502721  61.3330936  29.5614576  43.2152796  89.1863346
  29.1870618  42.4068689  89.5363808  30.4780793  42.9998398  89.0142345
 110.0076629  88.0962355  24.8790848 110.8271743  88.5796912  24.9835407
 110.1600171  87.5266893  24.1250050  17.1723461  85.7991505  62.8267908
  16.6810691  85.0406837  62.5111961  17.7656388  85.4421425  63.4876823
 110.4777814  75.8457406   6.0789215 110.8146239  76.7366869   5.9841454
 109.5275832  75.9406502   6.0130131  60.9592653  78.3480914   2.8222477
  61.6205026  77.9026015   3.3518994  60.3735472  78.7535150   3.4616196
  55.6297016  30.7439661  61.2475300  55.3928614  30.3507972  62.0875025
  55.7503891  29.9983072  60.6595993 109.3525506  63.3078308  20.6849205
 109.0240813  63.3030440  19.7858536 110.2853919  63.1107194  20.6001579
  33.6483359  61.0362482  89.0153790  32.8470564  60.7215548  88.5968685
  33.7120318  60.5275679  89.8237228  59.7869612  80.1432712   7.4064648
  59.7365642  81.0990651   7.3942005  60.7218242  79.9537213   7.4860394
  20.6270289  19.6605325  80.3320599  20.5314755  19.6698689  79.3796825
  21.5634060  19.7928452  80.4801273  93.9720679  83.4835894  20.3820431
  93.6478663  84.2825944  20.7976353  94.3053580  82.9548175  21.1069882
  10.5904245  66.1773872  71.8544674  11.2195957  65.6299210  72.3242044
  10.8326375  66.0839987  70.9331417  40.9192133  41.9304800  82.4407291
  40.0166607  41.7653561  82.7134323  41.0831499  41.2859297  81.7523193
  45.8993816  10.0268936  63.6969995  46.6567659  10.5623579  63.4606123
  45.2899218  10.6413317  64.1059637  22.7634549  21.0085940  77.1126413
  22.5525331  21.8180752  77.5779200  23.6655688  20.8142710  77.3669291
  51.8668985  37.7920508  77.7065086  51.4670277  38.4866118  77.1831369
  51.1618805  37.1592546  77.8434372  72.4964333  74.9411304  10.7772171
  72.9219008  74.9184258   9.9200737  72.3810364  75.8730657  10.9627163
   2.1207764  75.4179652  30.3590786   2.7960398  75.1780541  29.7244942
   2.1116497  76.3750680  30.3487980 101.3330794  38.2195885  12.0890343
 101.4785338  38.9115937  12.7341759 101.9893885  37.5550528  12.2985089
  47.0952511  12.4987602  72.4112654  46.8184137  13.2487261  71.8848181
  46.3753271  11.8727410  72.3335171  45.8851337  33.9932084  90.0985622
  45.2682686  34.7241402  90.1366329  46.2243176  33.9193368  90.9905910
  79.7272731  63.4004892  27.1931755  80.3557587  63.0991704  26.5370953
  79.0646363  63.8740952  26.6903412  98.9109994  75.5915148  22.6256668
  99.6346141  74.9955518  22.8191483  98.1262637  75.1059062  22.8798592
  42.0903444  55.4586792  46.5738773  41.4503813  55.3734064  47.2805643
  42.5231409  54.6056461  46.5384674  65.2549697  87.8926928  25.1866066
  65.8234979  87.1610720  25.4269039  65.8207084  88.6630089  25.2393734
  32.2892189  50.8535480  73.7342644  32.5695491  50.9618902  72.8254700
  31.9211268  51.7038918  73.9743662   0.7697003  41.4453697  82.5667858
   1.6020207  41.3806105  83.0350590   1.0101065  41.3884115  81.6420174
  99.0479852  65.2853568  17.9549038  99.9400140  65.6300743  17.9138863
  98.9811469  64.7031851  17.1980393  76.4460445  66.8450601  30.3801167
  76.3480903  67.3089678  29.5485985  76.4106227  65.9183712  30.1429951
  78.4989024  61.3475485   8.4003746  77.8744698  62.0698638   8.4680378
  79.0029479  61.3897766   9.2130196  91.8598150  55.2981567  91.1872196
  92.3738645  54.5914364  90.7966614  92.4053548  56.0775900  91.0818672
   6.2179282  87.1856434   6.2325394   6.9153979  87.6238949   5.7449925
   5.4171660  87.6336439   5.9599316  38.0148268  30.7677484  58.1665516
  38.5818791  31.2614918  58.7589216  38.5854602  30.5214500  57.4385786
  80.6116105  74.7915490  30.1589596  80.3368808  74.2442901  29.4232571
  80.4362489  74.2572100  30.9335339  26.7329240  18.7508321  84.4711018
  26.4607048  19.2458487  83.6983871  26.1190724  18.0176556  84.5143700
  92.4720956  91.0509212  20.1152718  93.2134391  91.5204723  19.7329628
  91.8871737  90.8843286  19.3761170 109.7650100  65.3097816  53.1663334
 110.5448724  65.0364931  52.6832592 109.1034556  64.6548922  52.9434120
  75.7131601  95.7673104   4.0555870  74.9348284  95.2506049   3.8471615
  76.0634209  95.3631670   4.8494541  92.5086928  86.2843759  17.6359856
  91.9688559  85.9237773  18.3393967  93.3934832  85.9754188  17.8307163
  64.5854998  65.3858860  19.2037308  65.2815843  65.4932721  18.5555279
  64.2445231  66.2701960  19.3377506  58.0390859  85.9517963  13.2744229
  57.5149752  85.7135017  14.0391171  58.3270574  86.8473966  13.4510815
  62.2546125 102.8514226  18.1138336  61.9680954 103.6277611  18.5949146
  62.8828598 102.4262412  18.6975872  67.7366901  68.3981605   4.1362393
  67.0361424  68.9940543   3.8709557  67.4456716  68.0457122   4.9772560
  44.8003340  26.4562941  80.6819534  44.2301416  27.2195482  80.7744598
  44.8735952  26.3252282  79.7365999  26.1509657  53.7216759  83.3010101
  27.0705605  53.4771633  83.1971264  25.8908820  53.3274317  84.1335678
  16.6550875  42.5279093  76.3047075  16.2005770  43.2648563  75.8965921
  16.4815068  42.6280975  77.2406912  78.1519938  99.5551283  26.9867527
  78.3733178 100.3609879  27.4534809  78.9894534  99.2345984  26.6518509
  69.6479369  64.8059256  33.7804138  69.7413898  65.7581027  33.8096916
  69.2393161  64.6313221  32.9326164  13.5566223  28.3679008  72.9270411
  13.1745625  29.2186093  73.1428099  14.3187320  28.5776019  72.3871851
  81.6472913 101.1982853   8.9882385  82.1171571 100.3889449   8.7871849
  81.3578368 101.0885031   9.8940003  81.6538144  94.6229441   7.2733509
  82.4996091  94.6200688   6.8251812  81.0834027  95.1405652   6.7050850
  93.2699920 103.3246596  35.0279152  93.9618398 103.8741143  35.3962528
  93.4268142 103.3428462  34.0838253  49.8070551  51.5882174   5.8668244
  49.1071905  51.0121955   6.1744225  49.3511260  52.3021953   5.4211819
  17.8327405  34.7953796  86.6633987  17.5694990  34.7631979  85.7436657
  18.4840727  34.0993953  86.7505932  51.0842514  49.2978191  75.6761980
  51.5531969  48.9413929  74.9216843  50.6822586  50.1029015  75.3498888
 106.6606282  55.3196096  73.5577774 106.2681858  56.0794353  73.1277990
 106.1192410  55.1776886  74.3343019  56.1659479  15.2234709  72.1092749
  56.9433117  15.2535641  71.5515757  56.4925289  15.4240608  72.9863977
  94.4348408  17.2410280   0.3797352  93.9240016  17.9953701   0.6734097
  94.0440525  16.9993765  -0.4599846  86.6065789  83.6259587  11.5590298
  85.7700778  83.1645758  11.6192066  87.2570802  82.9306681  11.4607918
  97.8428937  86.6845543  13.3319771  98.4319163  86.1196835  13.8321888
  97.5463916  86.1372883  12.6047814  47.9218960  51.3351583  88.1704044
  47.4141407  52.0601749  88.5347748  47.3437738  50.5760288  88.2460880
  14.9973110   0.2246553   1.8821728  14.9619535   1.1655552   2.0544731
  15.4963687  -0.1345795   2.6157486  83.0505181  61.3249220   9.3817818
  82.5176144  60.7337500   9.9135315  83.9112712  61.3133205   9.8003494
  62.3736286  14.3131363  85.1160526  61.8806648  14.9935269  85.5746269
  63.2813168  14.6158206  85.1427746  94.9006320  55.5113171  45.1350128
  94.1426802  55.5959111  45.7134354  95.1083661  56.4100693  44.8794281
  40.2542877  17.9538977  88.8767147  40.1216841  18.2510853  87.9765320
  40.4541159  17.0214391  88.7941170  21.6052725  69.4364722  12.4769795
  20.7367232  69.8376269  12.5073540  21.4752963  68.5567470  12.8311360
  79.8937655  61.5134795  10.8866703  79.9498130  61.4427574  11.8396103
  80.1007939  60.6346960  10.5686962  94.7843934  87.4629481  28.8172829
  95.0014640  87.7779586  27.9398548  94.2610217  86.6758139  28.6664879
  99.9555160   3.8422377   9.9216187  99.8246791   3.2490904   9.1818249
 100.7774426   4.2919475   9.7255909  90.2103425 103.5024245  24.6708691
  90.8468390 104.1796477  24.8999321  89.3801070 103.8259251  25.0205624
  60.0479984  22.3748994  72.2073317  59.6863317  21.5127778  72.4127102
  60.1881647  22.3564982  71.2606287 105.5734158  91.2033184  39.2444145
 106.4388800  90.9594066  39.5726120 105.2656604  90.4253919  38.7792885
  74.4446135  75.8900888   5.0496399  75.3416110  75.6878288   4.7837078
  74.2274977  76.6900666   4.5709717  24.8846819  76.9769628  17.3336994
  25.0240328  76.1843951  16.8153870  24.0376666  77.3106749  17.0380127
   8.8569033  19.0126669  85.7425880   8.0831075  18.7250996  85.2580547
   9.4444460  19.3598485  85.0714016  20.8827499   8.8678915   5.8410370
  20.7049754   9.7250158   5.4537880  20.0316385   8.4301073   5.8547985
   9.5444444   3.7796242  26.6417896  10.0979760   3.7068588  27.4193108
   9.9450639   3.1865150  26.0062134  94.0329600  92.9036768  14.9725449
  93.6179257  92.0771940  14.7257626  93.3894873  93.3367069  15.5334961
 109.0321194  45.9632587  55.3235865 108.2725261  46.5400743  55.2427578
 108.9145802  45.5294418  56.1686993  41.6385794  57.1680880  78.0848312
  40.9990740  56.7253780  77.5269127  42.4766684  57.0324326  77.6427555
  85.2567101  83.9644701   5.7119381  85.6248761  84.5964677   5.0944721
  84.3209601  84.1651113   5.7306587  61.1134005  28.3415484  75.8842850
  61.7593861  28.8950944  76.3230610  60.6571770  28.9336991  75.2864170
 107.1970845  65.2135236  43.0071842 106.2736798  65.1122661  43.2380497
 107.6683999  64.7358329  43.6897576  64.4272232  38.7503266  90.7447243
  65.1479912  38.9784074  91.3318348  63.8037920  39.4704056  90.8398533
 102.8243162  11.2461931  22.1146023 102.9244830  12.1563608  21.8356907
 102.4944069  10.7928688  21.3387882  59.3586088  90.2717264  17.6490414
  59.5819832  89.4298179  18.0459320  59.7249795  90.2249463  16.7659676
  79.9888087  73.1898506  24.1516602  80.9195090  73.3470769  23.9925873
  79.8462869  72.2871919  23.8668358   7.0172423  25.9700370  63.5165453
   6.4816970  26.7633367  63.5264206   6.3878632  25.2575469  63.4048700
  82.9627610  83.6571724   2.7341759  83.8544751  83.9138205   2.4992191
  82.8841925  83.8849552   3.6605560  75.9732772  71.7494519   0.3349411
  76.3617564  71.2213011   1.0323441  76.7188431  72.1812243  -0.0821197
  91.7437363  87.6359398   0.9593784  91.8821669  88.2507141   0.2388775
  92.6184321  87.3048241   1.1631024  86.9261695  63.9297993  24.4580662
  87.3551608  63.4176238  23.7725937  87.6471520  64.3201823  24.9520504
  30.0254893  41.3250971  61.9420147  30.7183552  40.6658173  61.9030571
  29.4318318  41.0910988  61.2285423  97.6379252  99.8687918   4.4118225
  98.0566550 100.7237084   4.3117726  96.9126702  99.8827584   3.7872898
  44.0467882  81.5290356  90.3130722  44.9191475  81.6569328  90.6857109
  43.4934664  81.3188362  91.0653210  51.4004707  35.3410625  79.8519516
  51.1543036  34.7539115  80.5667114  51.5716362  36.1802053  80.2794743
  25.8326530  18.5023975  63.5304880  24.9948311  18.1546950  63.8360834
  26.2175870  17.7880228  63.0228186  91.9803619  46.6993856  61.4437723
  91.6653442  46.1198330  62.1373987  92.8811264  46.9048548  61.6940212
  69.6877766  63.0093826  25.7345020  70.2986050  63.5227771  26.2632191
  69.4686986  63.5811729  24.9987709  44.0408850  42.0292759  66.6975641
  43.4962797  42.3579073  67.4128532  44.6212149  41.3908958  67.1121979
  47.5851250  33.5347223  77.5316715  48.3625603  33.5300851  78.0900621
  47.7352285  32.8258371  76.9062233 110.4673768  77.2618134   0.7583344
 109.7500325  77.1325858   1.3787853 111.1792231  76.7201121   1.0990250
   0.0918581  75.4278595   8.3973610  -0.0453565  76.3711412   8.4846699
   0.9904339  75.3450758   8.0780708  83.5182095  76.3739784   5.7381451
  82.8599406  76.9839199   5.4051506  83.7683106  76.7328436   6.5895569
  38.5745454  37.4718332  87.4179363  38.7935996  36.8723464  88.1312847
  37.6487899  37.3051023  87.2407150  71.7612387  98.2126267  30.4133713
  71.3257814  98.2500680  29.5617783  72.5950170  97.7767785  30.2370751
  96.3329078   0.9497005   5.0412666  96.6405799   1.4991648   5.7621491
  96.3213660   0.0637419   5.4034531  28.3834600  52.1921253  67.4550915
  27.9258013  51.9037962  68.2448053  27.6972079  52.5698566  66.9049931
  40.8224630  25.9960389  90.5209541  40.3622150  25.4556608  89.8787785
  40.6195593  25.5910301  91.3641834  34.2704156  21.8964512  36.0967552
  34.5737842  21.3078911  35.4055321  33.4802297  22.3002083  35.7378494
  73.9245487  79.0130146   5.3195774  73.0312277  79.1991336   5.6086552
  73.9730025  79.3829210   4.4380676  50.4514980  54.1745663  76.4011955
  50.0047255  53.4723091  75.9284735  51.2917995  54.2684555  75.9525204
  54.3410683  19.2544627  84.5076561  53.6804914  18.7284279  84.9583817
  53.9236212  19.5095646  83.6849213  26.3821080  31.6967947   7.7217686
  27.3269180  31.8456346   7.7593434  26.2943080  30.7688887   7.5037872
   9.4304231   4.3447287  36.6902554   9.2882446   3.4672338  36.3352692
   9.9009374   4.1978151  37.5107872  67.2856522  62.4892521  82.0458031
  67.4972153  61.5917110  82.3024940  66.5457869  62.3985481  81.4453030
  67.7851797 100.9150918   0.3327286  67.5063134 101.7798502   0.0316441
  68.0971242 101.0615046   1.2257492 111.2304534  33.2730937  62.4694538
 110.3445063  33.0684566  62.1703672 111.1634846  33.2879543  63.4241915
   4.7292616  53.2510054   9.9083912   5.2667334  53.0866520  10.6832039
   5.2068140  52.8320901   9.1923725  52.9361105  36.5417194  58.3019447
  53.0707073  35.7715774  58.8542080  53.4788942  36.3807893  57.5301123
  86.1027242  92.4083979   8.7291729  85.2720023  92.5197680   9.1914856
  86.0689450  93.0485709   8.0183518   9.7237161   5.9347469   4.7007191
   9.9765828   5.2295048   4.1049683  10.3108600   5.8370859   5.4503643
  90.7492066  79.3978293   1.1978352  90.5056954  78.8880856   0.4251110
  90.0615455  80.0591977   1.2749397  65.0454950  36.1072040  67.4678230
  65.4409218  35.4695272  68.0621624  65.6995916  36.8019652  67.3923206
  41.9226936  18.6143572  37.4525654  41.6296294  19.2305500  36.7812550
  42.7661756  18.2946140  37.1323502  26.6167355  21.0135579  76.8763828
  27.4270868  21.3340187  76.4803219  26.1098433  20.6704164  76.1404848
  24.3829679  10.8354342  83.7151146  24.6825147  10.7857680  82.8073502
  23.5955954  10.2915847  83.7376022  16.7497814  50.0104761  75.5868626
  17.1556246  50.4712105  76.3211966  17.0299256  50.4993773  74.8130894
  19.1047084  49.4618797  89.1909790  19.2307258  50.3546524  89.5123959
  18.2431579  49.4767570  88.7741566  69.0319444  89.2691906  35.4577076
  69.9875451  89.2301805  35.4968559  68.7563706  89.3144448  36.3732636
  55.0110006  66.9612217  86.7143059  55.7575035  66.4305210  86.9923592
  54.2452574  66.4817810  87.0305347  26.5048981  17.9914260  73.0983257
  27.1401978  18.6299908  72.7745008  25.7792711  18.0386555  72.4758530
  54.8894072  68.2423353  81.9084740  54.4769144  67.5417376  82.4136925
  54.9228287  68.9848423  82.5116253  88.4238149  90.0292165  12.9968559
  88.3742047  89.2055757  12.5116837  88.4070445  90.7067449  12.3209011
  19.3479207   9.6154673  20.9345066  18.4318116   9.4122250  20.7456219
  19.3544248  10.5577309  21.1028206  86.7412520  77.0993645   8.4048378
  86.7719603  77.4918039   7.5323212  85.9225751  77.4201877   8.7830841
 108.1461860  86.1748583   7.7979386 107.3297644  85.7827194   7.4882328
 107.8982402  87.0568879   8.0750286 112.5088406 105.3726895  31.2540447
 112.7393103 104.8920662  32.0491039 113.2936812 105.8788474  31.0441601
  89.7523976 106.3050873   9.7175324  89.0290833 106.3494332  10.3428948
  89.5119668 105.5942853   9.1232407  36.3948226  14.6075046  82.8321838
  35.8376956  14.9381709  82.1275616  36.8119097  13.8292682  82.4625683
  20.2307609  16.5158207   6.2469208  20.5583623  16.8811066   7.0687973
  20.0780872  17.2789556   5.6896507  62.4911381 101.4198525  41.4517510
  62.0183969 101.7947323  40.7086384  63.3743168 101.7821391  41.3811886
 109.7271396 100.9206564  12.9953777 110.5421306 100.4261239  13.0817711
 109.9889756 101.7436535  12.5826466  17.3848298   2.0925409  14.5185959
  18.1419996   2.6501257  14.3396198  17.7288774   1.3921005  15.0728905
  46.6764832  44.5559549  91.8347168  46.2444973  43.7243700  92.0298767
  46.3813114  44.7777271  90.9515858  23.2335666  13.8888533   1.6912186
  22.5787214  14.4502813   2.1062004  22.7224258  13.2101423   1.2504112
  15.8391670   6.1295063   6.3541329  16.4915231   5.5135233   6.0206234
  14.9979356   5.7178718   6.1563503  23.3555007  49.7179079  82.0469952
  24.2170191  49.3138742  81.9431973  23.5260725  50.6589937  82.0082760
  45.0765562  41.9548130  76.0052299  44.4235945  41.7578650  76.6768599
  45.9013462  42.0240116  76.4860344  44.7797159   8.7492401  41.1625015
  45.6554368   9.1079552  41.0187351  44.4738534   8.5065538  40.2885544
  62.0482683  18.9130259  74.9366379  61.6994476  19.7986162  75.0380516
  61.8088436  18.4668219  75.7489204  91.5147115 101.9313891  66.6633904
  91.7625666 101.7003424  67.5586140  91.4456368 101.0914118  66.2096321
  72.7705789  97.3047621   5.1106465  72.7604891  96.5744717   4.4919312
  71.8495847  97.5445015   5.2132332  15.4769710  16.6380722   1.0027134
  15.1259568  16.4310343   0.1365959  14.7812084  17.1376783   1.4299595
  54.0242375  92.0958216   7.3566353  54.8548973  92.5559003   7.2359478
  54.0433479  91.8019159   8.2673943  53.8064445  96.2632067  19.1914379
  54.2876900  96.2433751  18.3642494  53.0751444  95.6602843  19.0575897
   8.2423785  32.0124132  18.7085831   7.5697187  32.2949297  18.0889523
   8.9940933  31.7879183  18.1601727  46.9162560  57.0753193  89.1278934
  47.5721121  57.2032642  88.4425354  46.7153406  57.9593134  89.4351673
   6.8928531  27.0940668  40.8796036   7.4657634  27.5574381  40.2686226
   7.4478296  26.9135267  41.6383087 103.3349038  91.2116940  11.1348164
 102.8896190  91.7643459  10.4925358 102.6429606  90.9403188  11.7379772
  16.7766988  23.4623909  76.9905949  17.3535991  22.7791238  77.3320103
  16.0961986  23.5564327  77.6571560  32.7539396  49.1873646  89.3958187
  32.0983386  48.5000181  89.5140076  33.1755662  49.2659044  90.2515602
  67.1789169  86.4051437  88.5727978  68.0570793  86.2302589  88.9111328
  67.3197603  86.6582775  87.6604748  89.0469646  51.4081430  83.3245564
  89.5547485  50.6072378  83.1944466  88.3942699  51.1734152  83.9841938
  39.8845267  51.8120527  77.1792316  39.5843792  51.1359978  77.7867603
  40.4162121  52.3986197  77.7172756  12.3400187  26.0620713  40.4871225
  11.9412279  26.3491559  39.6656704  13.2657957  25.9428382  40.2751064
  30.9151557   4.5394928   9.2069828  30.2786783   5.2537090   9.1749108
  31.1765626   4.4927389  10.1266014  68.4534693  79.3011570  82.4657822
  69.3766785  79.0750456  82.5788689  68.4331179  79.8346376  81.6712856
  38.3639836  23.6443448  76.7336416  38.4616137  23.7918711  77.6743507
  37.7646232  24.3322778  76.4442492  72.3916937  46.4410872   5.1914513
  72.5937105  45.9077002   4.4227326  72.8758217  47.2549994   5.0521671
  60.1586628  89.7169971  70.4455042  59.8230410  90.6134129  70.4417849
  59.4192266  89.1831875  70.1547909 104.0551949  78.4351308   4.5672810
 103.7156773  77.6246603   4.9468815 103.2791329  78.8895853   4.2395126
  30.6385827  50.1462126  79.4994640  30.3392148  50.8260441  78.8957739
  31.2311840  50.6012487  80.0977898  35.6904173  26.3418746  60.3473711
  35.7118487  25.8242869  59.5424652  35.2733064  27.1646929  60.0919867
  52.7212811  42.7094507  60.8537769  52.8859615  42.9885578  59.9531031
  52.7222538  43.5217047  61.3602066  86.5898324  89.7545059  14.8848831
  87.2644807  90.1992853  14.3717968  85.9016944  89.5517881  14.2511666
  22.2631743 102.0087750  16.0030377  22.9044440 101.3133986  16.1495030
  21.4475157 101.6625292  16.3650620  26.9629863  14.3745834  13.0021965
  27.8826860  14.5829517  12.8379738  26.5503505  14.4156534  12.1394837
 101.6757871  92.4685009   1.9702351 102.5901175  92.1884902   2.0129215
 101.7212249  93.4124644   1.8182575  51.1751556  32.4734473  85.3544044
  51.5263796  33.1539798  84.7801590  50.2252102  32.5692558  85.2861691
  57.4876785  34.5101976  79.8962164  57.0123148  35.0232124  80.5497265
  56.9554472  34.5797420  79.1036701  81.0288049  89.3293841   7.0274079
  81.2397910  88.4927208   7.4417889  80.1548100  89.2005165   6.6589653
 108.7019015  93.8660986  21.2326920 109.2995644  93.7898047  21.9764721
 107.9487134  93.3270986  21.4743817   3.9774469   1.6474516   4.7379124
   3.6842397   2.3995191   5.2523625   3.3575586   1.5987474   4.0101731
  60.3021717  64.2908573  83.6907673  59.8703289  64.4378901  84.5322609
  60.7409811  65.1195908  83.4987068  20.5332708  48.2400751  66.9629145
  20.8018184  49.1193533  67.2293329  20.4460216  47.7570009  67.7846527
  60.5229998  31.1693788  92.0970535  61.2392759  31.4846897  92.6481915
  59.7290945  31.4486623  92.5530720  69.9690438 102.3562415  18.3133232
  70.4877282 102.5312121  17.5280869  69.2436839 101.8130238  18.0051052
   1.3309553  11.7770655  20.6563770   0.8059362  12.3510200  21.2141907
   1.5405253  12.3128397  19.8913490  69.2070342  98.2306035   1.1824333
  68.9488960  97.3404295   0.9432900  68.6506558  98.7939818   0.6445896
  75.1157022  97.2855456  49.1865456  75.2035261  97.9495795  49.8703396
  75.9776092  97.2537882  48.7714111  30.3382400   0.2754242  10.3372490
  30.3359464  -0.6061285  10.7102024  31.2638524   0.4720575  10.1930058
 100.8022310  19.4121916  10.2781498 101.6957809  19.2425234   9.9798023
 100.2558757  19.2308170   9.5134079  66.7847109  74.9074268  74.7515774
  66.2999630  75.7176542  74.5941544  67.1245956  74.6606970  73.8914442
  34.8717761  53.7369967  77.1289921  34.5784473  53.8094330  76.2207270
  35.1970148  54.6106863  77.3460484   3.9704153  31.9180942  82.8090477
   4.8877746  32.1839380  82.7457142   3.9200822  31.4243674  83.6275387
  77.8181315  78.8448627   0.8752167  77.8293134  78.2106192   1.5920365
  77.8704358  79.6968348   1.3083851   4.5096686 101.2267239  29.7797787
   5.3701117 101.1609204  29.3655979   3.9010861 101.3441403  29.0503513
  15.9319833   3.7853367   2.9579651  15.1689151   4.0064461   2.4240505
  15.5827621   3.2338936   3.6580956   0.5939582  22.4570496  15.5007279
  -0.2633259  22.8368265  15.3081906   1.2095645  22.9855139  14.9928009
  72.0432806  51.4224720  88.2209682  72.3202562  50.5776644  88.5756779
  71.1306906  51.2874508  87.9656696  65.6232525  96.9955046  37.4304878
  66.0746289  97.5727160  38.0463802  65.6069065  97.4872096  36.6094029
  39.4786453  10.8403993  50.8509541  38.5832334  10.6353593  50.5818319
  39.8122120  10.0212991  51.2170696   3.7094835   0.7871801   9.3346131
   4.5714238   0.6125481   8.9567196   3.7625030   1.6913111   9.6444046
  17.3460162  56.8258429  82.3603344  18.0822158  56.3218403  82.0136070
  17.3602676  56.6538191  83.3018494  81.8658455  48.3128054   0.1144993
  82.5371517  48.3594877   0.7952320  81.6805859  47.3780233   0.0245106
  34.1432193   8.2578499   2.9997837  34.7301200   7.5614387   3.2943928
  33.3959344   7.7963144   2.6192867 100.3964139 104.0674860  21.4844143
  99.9770785 103.2744868  21.1504280 101.2346078 103.7658484  21.8346607
  31.7355636  31.4942438  16.5090573  31.6083434  30.9598047  17.2929108
  32.6651195  31.3981039  16.3019001  67.0739079  94.2535479   4.0564453
  66.4045668  94.2696507   3.3723747  67.7179480  94.9040873   3.7767327
  61.4519167  72.5475073  73.3616495  61.4269543  73.5032177  73.4087896
  61.6035414  72.3572445  72.4358797  34.9542455  81.0029132   7.6908409
  34.7932259  81.9271381   7.8808796  35.6161455  81.0123403   6.9994461
  88.8718654 101.2081893   9.7017395  88.8547564 102.1621687   9.7782814
  89.7419072 101.0113223   9.3546116  45.2841330 103.2253838  65.2318716
  44.3566465 103.0022049  65.3105736  45.6535530 103.0202961  66.0907602
  80.6595612  86.5103824   7.7351296  80.5812264  86.2930830   6.8062222
  79.8080636  86.2810428   8.1073963  18.7243989  15.1852543  13.9766800
  19.5610860  14.8202354  14.2646897  18.1593564  14.4222481  13.8551247
  34.3189788  26.8509316  56.4853811  35.1226950  27.1963382  56.8739319
  33.8110328  26.5306163  57.2307825  38.3044723  51.5675051  42.5411999
  37.6202253  51.9889719  42.0211994  38.0177596  51.6767580  43.4478962
  80.3259563 101.3809490  83.0600929  81.0222816 101.1038113  83.6555386
  80.4302216 102.3302174  82.9949474  72.2075701  54.2946005  88.6266994
  71.8936729  54.5591354  87.7619934  71.9292450  53.3829212  88.7139606
  73.4067154  25.2684832  87.9217339  73.8673162  26.1075687  87.9252338
  72.9141331  25.2690768  87.1010017  69.0176535  74.3154860  76.5022039
  68.3323240  74.5505619  75.8766699  69.8300219  74.6067953  76.0881615
  45.5090714  38.4698033  64.6271706  44.7218132  38.1787610  65.0873375
  45.7077646  39.3245482  65.0094843  45.1922321  55.1705170  81.9581604
  45.9765148  54.8708296  81.4984703  44.5429325  55.2973986  81.2663937
  34.7181010  38.6775756  76.3961029  34.8391843  39.5853448  76.1176634
  34.9953318  38.6690474  77.3122358  70.9845400  74.7104359  80.3563881
  70.7905960  73.7939024  80.5528164  70.1285791  75.1068830  80.1939201
  25.1637319  11.5793783   8.4473717  25.0187925  12.2793323   7.8107464
  24.4988015  11.7260343   9.1201222  78.3917189 101.9511492  23.3574783
  78.9617539 101.2589152  23.0226528  78.9869881 102.5632174  23.7902081
  43.6512823  95.1030905  31.1138451  44.2709328  94.3854029  30.9827339
  43.0857868  94.8041947  31.8259537  52.9678011  48.9443731  89.3278408
  52.8037596  48.2219410  89.9339771  52.6266050  48.6351252  88.4886837
  79.0080901  15.1127178   8.5658276  78.2291703  14.6205742   8.3063805
  79.3899532  14.5990021   9.2775166 106.0284711  95.7384570  42.5347054
 106.0836411  96.6617472  42.7811253 105.1705409  95.4566844  42.8521931
  99.9516345  64.6587486  11.3772213 100.0427962  65.0238318  10.4970944
 100.5192471  63.8880045  11.3767922  24.8041728  27.6181013   6.5592682
  23.9858154  27.8102381   7.0170986  24.5558027  26.9957430   5.8757412
  43.9677861   8.8523991  34.1907704  44.7278169   8.3045275  34.3867886
  43.2374910   8.2364828  34.1312992 110.7234506  57.7095604  91.0260487
 111.0148539  58.4153605  91.6032410 109.9996223  57.2976875  91.4979172
  14.4274429  13.3487780   5.5011093  14.5284751  13.1733448   6.4366543
  13.9171890  12.6086409   5.1723683  61.5490150  38.1177354  75.9868145
  62.4628019  37.8393459  75.9257841  61.0446644  37.3157740  75.8499813
  99.6469475  21.0768349  15.6587422  99.9347951  20.6121141  14.8729908
  98.6957313  20.9701712  15.6651413  39.7599196  40.6556320  74.9484301
  39.1044807  41.2046242  74.5180368  39.8881984  41.0628176  75.8051491
  31.9816232  34.9088764  76.1374760  32.3677444  35.1952624  75.3097534
  32.3065543  34.0165210  76.2572813  90.0198746  60.4424524  71.3256979
  90.7860565  60.0341940  70.9225607  89.2726707  60.0217867  70.9002972
  19.5388055  14.4504201  51.8266821  19.8861253  13.8996065  52.5282574
  19.1663134  13.8316524  51.1985064  88.9846267   8.4394962  22.9713261
  89.9205960   8.2466442  23.0261337  88.9444889   9.3535597  22.6900685
  20.1832795  66.6519928  64.2845869  21.0390377  66.7559290  63.8685274
  19.8821187  65.7889318  64.0005779  98.4202529  89.0551097   6.5475571
  98.5412789  88.9816482   5.6008827  98.0313397  88.2191880   6.8048775
  36.5808606  47.1434212  75.9597397  37.4356103  46.9733000  76.3555861
  36.7367435  47.0814705  75.0173521  96.7418528  95.3777201  24.3361103
  97.6307584  95.7292445  24.2859852  96.5502454  95.3436978  25.2733147
  28.9613250  16.4300568  15.2618992  28.3359292  16.0688192  14.6337139
  28.4413484  17.0245726  15.8026516  56.9331888  45.6332380   7.4232876
  56.9336847  44.9590475   8.1027805  57.5493577  46.2934858   7.7405369
  66.3155460 104.8073673  85.3635883  65.9445095 104.0467548  84.9163532
  67.2626257 104.6931648  85.2847099  32.4469236  19.0178139   9.2842495
  32.4680904  19.1860516   8.3421909  31.8729642  18.2576639   9.3789684
  56.5382529  81.9184859  40.8491337  57.3611678  81.8654950  41.3351738
  55.8828545  81.5608270  41.4481079  73.5861448  57.3523313   0.4090988
  74.1373590  58.0957777   0.1647961  73.5629609  57.3755056   1.3657391
   9.8934940  19.9532921  31.5520870   9.8047880  19.1947014  30.9751141
   8.9946130  20.1774914  31.7928707  33.6215690  24.9926168   2.9529679
  32.8498796  24.8785097   3.5076821  33.3591512  25.6515295   2.3101532
  80.3321410 105.7511408   0.7286465  79.8112918 104.9685986   0.5481636
  80.4526425 105.7448990   1.6782105  33.1581712  57.2977638  87.7124977
  33.6831617  57.4134302  86.9205093  33.5372829  56.5304947  88.1412220
  20.3643611  15.8431322  11.3043415  20.8120349  15.1382763  11.7723095
  19.5231822  15.9316570  11.7524635   5.5324748  11.8348057   3.0009186
   4.8784259  12.5297625   2.9267990   6.3224223  12.2809250   3.3061993
  34.4862986  63.5013676  89.4928455  34.5034623  62.5974417  89.1784382
  35.4005170  63.7832403  89.4615459  48.3328295  34.5610952  92.0722485
  48.8661766  34.9078989  91.3570499  48.4086657  33.6105919  91.9884491
  92.5500155  96.2362416  14.1538822  92.7944995  96.5297110  15.0315678
  92.4079753  97.0449193  13.6618435  87.4900437  93.9240582   0.6571304
  86.9961310  94.4656403   0.0415241  88.1031133  94.5311005   1.0717117
   2.1622708 104.3335707  12.3607647   2.9934361 104.7412808  12.1175205
   1.5945628 105.0679810  12.5943863 110.1586295 104.5074589  25.6141102
 110.4051591 104.2165930  24.7361290 109.2375518 104.2609532  25.6982624
  15.4582599  19.0167410   7.4445450  14.5414642  18.9986975   7.1699631
  15.8765748  19.6320326   6.8423283   1.2619069  90.6984789  31.6302311
   0.4469397  90.2834280  31.3477528   1.4014962  91.4055092  31.0002720
 103.3460952  71.5017445  26.0841381 103.4281588  71.6645856  25.1444733
 104.1943980  71.7573125  26.4464962  89.9998070  29.9627191  31.3397610
  90.5806066  30.7235701  31.3358414  90.5703725  29.2247469  31.1251080
  69.4114780  46.9793463  83.0931377  68.6833143  46.7221355  82.5275898
  70.0800180  47.3041964  82.4900150  26.2714887  57.3015594  79.5982647
  27.2285461  57.3180771  79.5984793  26.0468507  56.4332390  79.9326181
  59.3113804  72.4662638  65.6202126  59.4436646  72.9886246  64.8290920
  59.8987818  71.7179728  65.5141401  52.6285113  92.1070058  20.3465092
  52.6642621  91.3775117  19.7278034  53.0079974  91.7564471  21.1523163
 102.4758245  22.2662622  11.1305058 103.1711222  22.1532900  10.4824078
 102.5107695  21.4699776  11.6605484  77.3799992  89.6334322  11.9479477
  77.4515892  89.8892005  11.0283291  78.2859326  89.5739777  12.2512352
   8.9036325  23.8627321  29.9725353   8.7230924  22.9263861  30.0555622
   9.5432523  23.9213259  29.2628300  49.3088150  71.9338846  60.9023714
  49.4926500  72.2896004  60.0329494  50.1704025  71.8331909  61.3070488
  94.5994664  92.3154361   8.3321964  94.7623587  92.9505999   9.0295231
  95.4066897  91.8035634   8.2811081  54.2813206  31.7849588  52.6989317
  55.0256634  32.3276687  52.9590321  54.3992758  31.6514754  51.7584515
  85.9892751 102.7685292  11.7789185  85.7233907 103.6518223  12.0345223
  85.8023454 102.2301610  12.5479710  76.2759662  76.6076000  30.4813683
  76.1404682  77.2399814  29.7757065  75.3926326  76.3755519  30.7679188
  15.6286550  58.3110237  87.1789551  15.9381235  57.5561571  86.6783142
  16.3099384  58.9728165  87.0601559  87.9356242  62.0106829   0.1562798
  87.3642016  61.2456740   0.2231514  88.6419679  61.8371595   0.7785332
  48.2032490  18.1115723  73.6684227  48.5856009  17.2967887  73.9942551
  48.8726950  18.4753931  73.0890226  58.3581495  67.4426556  89.4253540
  59.1086197  66.8545198  89.5097733  58.0825996  67.6102209  90.3265953
  23.3499721   3.8675148  23.4328663  23.1599239   4.5801002  22.8226769
  23.3404926   3.0788404  22.8905213  68.9160157  72.6291485  40.3543961
  68.1195641  72.6017947  40.8846295  69.2672325  71.7400785  40.4037106
  28.6395526  29.0640020  62.6722622  28.7203002  28.1233120  62.8297901
  27.9805183  29.1355133  61.9817638  84.3820954  66.1958404  33.2001030
  84.5831729  65.8238502  32.3413765  84.9391890  65.7097907  33.8080799
  32.9518986  16.5153360  72.1866465  32.4965787  15.6909215  72.0156002
  33.1154728  16.8832541  71.3182497 106.3109828  37.8244884  10.5327427
 105.9490920  38.0777915   9.6835625 106.7689324  37.0014567  10.3620636
  32.1456865   0.4361517  30.5556118  31.5978864   1.1954958  30.7544815
  32.8948453   0.7985432  30.0826847  92.3489047  83.0933816  45.9904205
  92.4199820  82.1914966  45.6777203  91.4163209  83.2978661  45.9218418
  71.6717745  93.6653454  14.5042526  72.3147369  93.0268056  14.8126328
  70.8819629  93.1499894  14.3404400  49.6593904  52.8697920  79.7928524
  48.7740898  52.5584316  79.9813414  49.8855448  53.4179592  80.5442524
  84.7804595  91.8311055   3.0325901  85.3403951  91.6907413   2.2690499
  85.2366925  91.3891561   3.7486660  43.0419400  20.8175499  22.3088181
  43.5370401  21.6112549  22.1060002  42.3928979  20.7545072  21.6081059
  32.0109534  37.7428412  54.5030594  32.1978521  36.9944072  53.9363623
  31.6160154  37.3580885  55.2855062  69.6847344  94.0609295  19.8895847
  69.1209842  94.4088299  19.1986477  70.3305460  93.5277779  19.4260037
  55.9951735  61.4406824  80.8073139  55.0873280  61.2197351  80.5993938
  56.3949680  61.6336441  79.9592829  67.6308919 105.6716425  31.6899311
  68.3648826 105.1585467  32.0278942  67.3299433 105.1832516  30.9236824
  32.4638557  42.4500418  76.2155056  31.9029880  42.9079342  76.8416023
  33.2003236  42.1349669  76.7395020   1.5297940  60.5404980   2.3900425
   2.0120861  59.7558523   2.6507294   2.0061591  60.8727003   1.6291630
  28.9807799 105.2541859  10.4438984  29.1726496 104.4810088  10.9745800
  28.0586531 105.1583989  10.2057278  64.3414068  87.5387955  73.7403059
  64.9576855  86.9110870  74.1176796  63.6140490  87.5637054  74.3620443
  92.7241601  14.1569645  13.1807816  91.7859770  14.3328173  13.1092274
  92.7772476  13.2281858  13.4061443  85.0456619  40.8920908  73.9696121
  85.9495163  40.9401655  74.2810011  84.5157433  40.9282255  74.7659302
 103.2464697  11.5827925   0.5768597 102.7346183  10.8744509   0.9673512
 104.0227439  11.1497433   0.2217495  37.6746345  58.6396122  84.1691589
  37.7869368  57.8955841  84.7607994  38.1001544  58.3658552  83.3566189
  15.6943944   2.4303848  22.6275170  15.2801755   2.2907812  21.7759525
  15.1842359   1.8925363  23.2330620  13.9564908  71.5315390  82.7659035
  13.2359993  71.6086960  83.3913422  13.5334849  71.5651464  81.9079018
  58.4593821  91.2622960  11.5320027  58.9911152  91.2815578  12.3276913
  58.5857750  90.3808911  11.1807453  38.3512616   8.0955011  86.8468475
  37.5354600   8.4529352  86.4962196  38.0886412   7.6384836  87.6458454
 112.2666456  11.0990030  23.0578339 112.8025438  11.8541128  23.3004200
 112.8734280  10.3589231  23.0760014  40.7372856  39.8774624  78.7378979
  40.2599525  40.4009438  78.0941916  40.4816151  38.9745164  78.5493422
  94.2179395  73.8883002  21.1812222  93.6075450  74.1994412  21.8496811
  93.9566375  72.9813607  21.0217964  88.9631511 103.6483271   6.1917507
  88.7426902 104.1758664   5.4240715  88.1733371 103.1361563   6.3652527
  77.5364256  71.0322666  73.3586216  76.9994879  71.5075827  72.7245808
  76.9756460  70.9445858  74.1293764  30.0074485  21.8686659   1.0131371
  29.0528205  21.7985327   1.0147488  30.3014329  21.1238892   0.4886257
  95.3304577  41.6964388  84.7031975  95.8720207  42.2218561  84.1142464
  94.7405434  42.3285341  85.1139259  22.5422052  33.3802397  38.8199055
  23.0068305  32.5992948  38.5191071  21.9336179  33.0560190  39.4837868
  56.2429810  79.5151806  86.8575287  56.0917616  79.2916536  87.7758980
  56.1499023  80.4672623  86.8242931  89.3232109  48.4117777   6.3939392
  89.7179391  49.2837698   6.3872826  88.6373998  48.4643919   7.0596134
  68.1585741  79.3024158  55.4730988  67.8541613  79.8238468  56.2158442
  69.0850782  79.1448784  55.6547546  85.2705383  70.3770161  83.0243397
  84.4073582  70.6810617  83.3048725  85.4049206  70.7910585  82.1718407
  61.0340691  67.5765228  70.9380817  61.4574051  67.6127768  71.7958117
  61.6294622  68.0498123  70.3569317  62.1704937  86.7930062   3.6362183
  63.0175448  86.7236931   3.1958496  61.5276266  86.7350824   2.9294026
  12.6093820  51.1450464  16.0913193  12.8972104  50.9016687  15.2114594
  11.7807058  50.6806929  16.2092507 104.9497604  76.4013720  66.9548082
 104.9014854  76.2083340  66.0185194 105.5087280  77.1763706  67.0110607
  83.4686756  78.8972902  83.2796001  84.0638638  78.2695484  83.6893749
  82.8750610  79.1590881  83.9833832  55.3162241  68.7150335  90.2141953
  55.9953070  68.5567570  90.8699608  55.0430012  67.8407001  89.9364948
  57.0769405  36.2567806  86.9461346  57.8843164  36.2756634  87.4599743
  56.8117237  35.3370690  86.9504929  54.6027279  54.3917990  89.9957466
  53.9373255  53.8276911  90.3897667  54.5171785  54.2415237  89.0542984
  55.0025654  71.8226957  76.5100479  54.5867634  71.9479847  75.6570244
  55.9413195  71.8580532  76.3264132  52.1584562  13.9376623  29.8431313
  51.5038160  14.6288950  29.9425137  51.7798188  13.3401091  29.1983044
  35.6468633  35.9333879  21.3006699  34.7596029  36.2915022  21.2733853
  35.8612970  35.8954794  22.2327721  63.9649820  56.9901371  86.3860893
  64.8066807  56.5751314  86.5746498  63.5572433  57.1055651  87.2443771
  94.7742844  94.8423576  66.5879202  95.2283192  95.4787350  67.1402836
  93.8689423  94.8586559  66.8982792  31.7709804  69.6222162  91.1039257
  32.4678445  69.3274117  91.6901875  32.1932530  69.6961164  90.2480888
 108.4916306 100.1153739   5.7587826 108.3460666  99.2180474   5.4590237
 108.3881045 100.0701315   6.7093002  29.5884374  13.6242897   4.2865479
  29.2894319  12.7462322   4.0502274  30.5253986  13.5214788   4.4531643
  22.1198371  11.7168695   7.0004093  21.8600419  10.9664089   7.5347817
  22.5849727  11.3323099   6.2574494  73.6644983  43.9876366  88.7007618
  72.8946972  43.5388756  89.0503979  73.3436203  44.4420385  87.9217911
  94.3453802  28.5418589  25.2534306  95.0690724  29.1488916  25.4083740
  94.6730341  27.9453737  24.5803082  49.0197805   2.1519644   2.9226315
  49.8657945   2.5314552   2.6849663  48.6360696   1.8809540   2.0886337
  27.0376590  23.4363014   5.9517395  27.6244357  22.8955776   5.4230129
  26.1593202  23.1378061   5.7158386  61.0826352  43.0174810  26.7187702
  60.2244046  43.4276850  26.8255627  61.6312269  43.7047750  26.3407242
  60.9845880  30.5410082  15.2143395  60.1621202  30.5429346  15.7040035
  60.7504323  30.1923258  14.3542111 102.8750610  20.8033729  87.9358387
 102.0969009  20.7340002  88.4889221 103.0297947  21.7446947  87.8571033
  63.5470819  85.3623009  86.7458820  63.1975222  86.1862183  87.0852947
  62.7891541  84.9199390  86.3636589  74.5398140  71.5513563  71.2184286
  74.2208290  71.0552120  71.9722986  75.0796032  72.2443199  71.5987778
  27.5060848  30.7747538  15.5846607  28.0341867  30.4933912  14.8375523
  27.6787189  31.7132265  15.6601250  76.8232727  46.2580156  91.3644123
  77.1377611  47.1223688  91.0994148  77.5959444  45.6954908  91.3117218
  77.0560503  76.0710669  87.8040886  77.3539734  76.4502335  88.6309528
  77.8075457  76.1556244  87.2172832  67.6934242  65.3610563  89.5184708
  67.6082659  65.3885555  90.4714775  68.3200169  66.0551405  89.3138695
  78.0994797  43.1434679  82.0145988  78.7421989  42.9080677  81.3454723
  77.5415707  42.3696852  82.0935535  93.6851883  48.2531166  89.9343967
  93.5737514  48.4365559  89.0015697  94.3961143  48.8322163  90.2091217
  59.4428968  43.1992054  85.2928352  59.5085764  42.3361397  85.7015419
  59.1585159  43.0188942  84.3968201  72.0577860  31.1704135  92.3416424
  72.4844980  30.6031847  91.6994667  71.1705112  31.2903547  92.0031261
  10.8655933  30.4645712  -0.1093471  10.7955173  29.9541552   0.6973660
  11.2207750  31.3080675   0.1709950  68.1941605  76.4866543  77.8810978
  68.4980583  75.6987476  77.4304485  68.7017536  77.1974182  77.4894428
  65.3974679  21.0427935  15.4401982  66.2037233  20.8799345  15.9297383
  64.8769716  20.2492458  15.5651199  92.4911977  92.2344120  26.7473042
  92.7404404  91.8868096  25.8909809  91.6254187  91.8618734  26.9142639
  96.7545414  75.6832409  70.9609890  97.1543789  76.3187313  70.3672600
  96.2206459  76.2122107  71.5537548  26.0226488  53.1778669  92.0792580
  25.3191328  52.5786877  92.3288250  26.3591504  52.8227091  91.2565422
  11.6828206  19.6548492  14.6882164  12.0789054  19.9854214  13.8819420
  10.7542423  19.8718817  14.6053707 107.9580619   7.3733885  12.3872864
 108.6883046   7.0168478  11.8814671 108.1096579   7.0612842  13.2793820
  84.3829060  62.0687580  74.7203636  85.0070858  62.1665144  75.4394436
  84.6500206  62.7281904  74.0800285 113.3206178  90.5184348  11.8849003
 113.3270932  91.4450533  12.1248352 112.4557973  90.2076967  12.1527874
  77.1169472  76.1316872  66.3800144  77.7716732  76.5061617  65.7906628
  76.2771559  76.3657522  65.9847975  67.2406057  45.6422979   3.8744080
  66.4682630  45.9003050   4.3775379  66.9609693  45.6984407   2.9606831
  32.9263043  48.6936808  69.2035818  33.7745047  48.3210945  68.9628172
  32.3838973  48.5783720  68.4233665  66.0532093  92.5712872  86.4033699
  66.6287136  91.8304062  86.5934372  65.8188581  92.9194069  87.2636700
  11.4471677  27.0492250   4.6537125  10.9527067  27.8688127   4.6488583
  12.3005870  27.2865278   5.0164807  33.8439059  43.2537603  86.4126492
  33.3532524  43.6493874  87.1330452  34.3552279  42.5575304  86.8250179
  27.9949525   6.9622499  26.0544979  27.2872451   7.2465069  26.6329300
  27.5733903   6.3665182  25.4351341  27.5301746  11.5024692  16.4047634
  28.0488637  12.2216732  16.7652332  28.0162767  11.2217075  15.6294548
  90.0593376  71.7706966  81.9686604  90.3789330  70.8713055  81.8966770
  90.8257389  72.3128939  81.7818832  88.5802937  64.6335316  74.9394131
  89.3928146  64.7672319  74.4513893  88.6955452  65.1439714  75.7409096
  71.0854483  83.2153702  87.4748611  71.7848969  82.7206516  87.9017639
  70.2778769  82.8150845  87.7970886  95.6967831  53.8994122  61.2743235
  96.5939331  53.9632940  60.9468174  95.7289219  54.3038559  62.1412849
  96.2865163  93.5218270  10.2385723  97.0500232  92.9611571  10.3762066
  96.6022206  94.4062026  10.4241764  13.9649489  67.6336379   4.5219528
  13.5992434  68.3332415   3.9806187  14.2310526  66.9604368   3.8956749
  79.4562627  94.6830018   3.4165299  79.4494820  94.1493447   4.2111313
  79.3523599  95.5812867   3.7304127  13.0270102  84.1106541  11.8676483
  13.1661036  84.1955478  12.8108799  13.2190707  83.1921060  11.6789448
  58.1450605  70.9781075  86.0141850  57.7788448  70.2292442  86.4846325
  57.6833534  71.7357349  86.3734436  57.9355861 105.1922591   5.7754910
  57.4335278 104.8173840   6.4991200  58.2653833 104.4333489   5.2943337
  15.0414375  23.3098728   7.8041756  15.6898502  23.2918436   8.5080731
  15.0195745  22.4111063   7.4755871  19.3580678   9.8932535  13.8859093
  18.5470966   9.9652130  14.3892777  19.3194536   9.0213186  13.4928906
  34.7016910  11.2757856   4.0308773  35.5140355  11.3213331   3.5266506
  34.6283868  10.3556711   4.2843449  61.8544483  75.0268507  90.1234150
  61.8567181  75.9626770  90.3245640  60.9381294  74.8247242  89.9343777
  77.1005201  24.2460513  91.9454098  76.5334892  24.6982789  91.3207531
  77.8319836  24.8476982  92.0840168  47.7486471  13.9324600   7.1677887
  48.0898050  13.3828527   6.4622509  48.0884794  14.8065407   6.9761574
  59.1661409  40.4599459   5.4957878  58.4212735  41.0305769   5.6849777
  58.8003972  39.5755178   5.5116379  48.8199568  64.7026110  87.9271221
  48.8726282  63.8180017  87.5652885  48.2666349  65.1812840  87.3099232
  88.5377074  59.7192307   8.2488835  87.8265477  60.1279880   8.7422478
  88.1851626  58.8713981   7.9784691   8.4968046   4.9653894   0.9404862
   8.9339116   4.4312174   0.2772915   9.1836980   5.5426247   1.2739670
   9.6655324  22.5648386   9.1576588  10.0856117  22.2487385   8.3577549
   8.7521318  22.2915251   9.0725910  85.1411152  58.3198404  75.6415272
  85.6326962  58.2812786  74.8211002  84.9967861  59.2542887  75.7905674
  74.7831631  60.7203293  84.9813461  73.9279652  60.6837368  85.4097462
  75.0636101  61.6297817  85.0837231  41.9747305  71.4811230  46.6480398
  41.4983416  72.2832823  46.4339685  42.1382570  71.0663843  45.8009911
  98.7419797  75.8491189  26.7026436  98.5774852  76.5382440  27.3462879
  97.8702737  75.5510361  26.4428150  57.8345540  13.7371189  31.3389599
  57.1056131  13.3433420  30.8595669  57.5864270  13.6573584  32.2599995
  17.3284438  84.2041595  32.3353493  16.6488173  83.5390408  32.4446785
  16.8679144  84.9592550  31.9693195  53.1489137  21.0277588  14.5837319
  53.3027890  21.9183237  14.8990833  52.7129510  21.1445553  13.7396156
  54.9263573  96.0351658  70.5281115  55.6931639  96.4288521  70.9443474
  54.2154026  96.1767006  71.1532068  41.8922424  39.3077111  90.7714272
  42.7377272  39.0996909  90.3737926  42.1093798  39.6005321  91.6564941
  32.5999308  74.1391230  84.6356106  32.4152970  75.0611448  84.8145485
  33.3249331  73.9219236  85.2216434  16.9626907   2.3869926  29.5145905
  16.0593227   2.7015621  29.5493328  17.4051812   2.9943926  28.9217198
  17.3663333  24.7074778  35.1168072  17.6859334  24.9841482  34.2580044
  17.8786138  25.2223427  35.7402718 108.4640814  36.5086824  30.7146179
 108.6459090  36.0820181  29.8772728 107.5136329  36.6217405  30.7244122
   3.6905626   5.9476120   4.1051018   4.2843059   6.5469438   4.5573151
   4.2650035   5.3990204   3.5709679 103.0155564   6.0333537  81.8297577
 103.1052399   5.0804233  81.8404579 103.1579066   6.2975406  82.7386951
  50.9786034  42.6443434  81.9773293  50.6518078  42.2857332  81.1522007
  51.8411493  42.9978609  81.7599201  53.4992746  34.4288046   4.5615208
  52.8521493  33.7672789   4.8061478  53.8432840  34.1278536   3.7205040
  10.1945070   7.7269537  24.3378079   9.3172506   7.4602587  24.0629971
  10.1185230   8.6668093  24.5025170  93.5000230 104.1542752   8.4849465
  94.1770507 103.4816010   8.5582649  93.8789035 104.8129876   7.9028904
   1.0185435  77.8996880  12.3252403   1.1860564  78.7127621  12.8017723
   1.5648272  77.9642804  11.5418923  32.5621322   0.3871853  13.2050430
  32.3056367   0.6936628  12.3352635  33.4672311   0.6820042  13.3055985
  43.4975719  60.8854866  89.5195675  42.7925682  61.5044212  89.3295193
  43.9052582  61.2241888  90.3166294  24.7861198  21.9918234   5.3938973
  25.3102020  21.2492973   5.0935185  24.3005422  21.6535170   6.1462223
  59.0141630  62.6079369  82.0031452  59.2537975  63.1098890  82.7821541
  58.2372904  63.0511808  81.6622162  89.1494656  95.7914734  75.2463675
  89.8104858  95.1050091  75.3360939  88.3139133  95.3310871  75.3246546
  76.6972686 102.5530942  19.7768032  76.4013959 103.0693085  19.0269863
  77.0452882 103.1999428  20.3905594  64.8865986  36.4026141  89.3025684
  64.8353958  37.2950506  89.6448612  64.0893745  36.2992716  88.7829685
  42.8145841  12.2594339  19.5406258  41.9121698  12.2117550  19.8562443
  43.1260351  13.1156570  19.8340809  12.8664306   9.1784651  15.4954350
  12.6274207   9.5242197  14.6354496  12.9000667   9.9489290  16.0624325
  16.4351419  12.9573233   3.5419571  17.2748903  13.3996374   3.4178078
  16.1567882  13.2142193   4.4210255  74.8526287  62.8740549  90.4612446
  74.2393589  63.2276535  89.8169708  75.4231930  63.6112452  90.6785774
  29.6017650  51.8252737   9.5362580  29.6630481  52.6839811   9.1178238
  29.0143207  51.9623644  10.2794563  80.1512718  56.2885523  84.1319180
  80.8315372  55.8304071  83.6384010  79.5187378  56.5643597  83.4685421
  20.4759886 101.5491564  12.0082962  21.1489870 102.0764239  12.4387562
  20.9381583 101.1046011  11.2976658  38.8032916  26.8269808   3.6286366
  37.9919103  27.0976526   4.0583336  39.4418147  27.4940950   3.8805878
  91.9237805  97.9687960  -0.1822365  92.1640111  97.6796038   0.6980431
  92.6054383  98.5963519  -0.4225338  25.4182771  15.1147587  10.7710087
  25.0343135  14.2660934  10.9913933  24.6678737  15.6682426  10.5547249
  57.6599455  68.2093477  91.9696712  58.1588793  68.7912655  92.5429726
  56.8651724  68.0095291  92.4642849  63.8577989   4.6175177  17.9861653
  63.2453779   4.2754538  18.6374485  63.9289144   5.5498917  18.1907189
  79.7304010  65.3203821  90.8529663  79.6644306  65.1231050  91.7872906
  80.6714535  65.3587914  90.6821442  78.8628387  54.7667122  81.4637947
  78.3739281  54.0113735  81.7903805  78.4650993  55.5179548  81.9038677
  24.9004367   8.4857971   8.8621723  24.7225097   9.4164974   8.7266266
  24.9295905   8.1164963   7.9795658  17.3291353  13.0597956   6.5436089
  17.1659807  12.3534853   7.1687042  18.2333759  13.3246834   6.7121708
  81.0400963  71.8604898  82.8040028  80.8527851  71.7865038  81.8682289
  80.7948971  71.0087347  83.1654167  40.2914047  64.1766691  84.9820900
  40.4320955  64.7906685  84.2613697  41.1188412  63.7012577  85.0566959
  53.0090857  65.7928658  74.9489450  53.0340481  66.5900564  74.4197083
  53.4587097  65.1372576  74.4157982 100.9979011  35.9397108  39.1094124
 101.8659069  36.2737448  39.3357193 101.1712863  35.1510984  38.5953438
 112.1843888   7.4330408   8.3881104 113.1057932   7.6852447   8.4484017
 112.1253564   6.6197998   8.8894856  60.7662964  70.6813574  89.8182201
  60.3740931  71.1226368  90.5716705  61.2819815  69.9703884  90.1987648
  30.9145260  54.9446058  77.3030996  31.6723299  55.2782488  77.7833605
  30.6434298  54.1681767  77.7928925  42.0241836  20.9821493   0.6298744
  42.4788526  20.6442720   1.4014637  41.2226632  21.3740045   0.9766495
  67.9154611  65.8474238  18.0274117  68.0653740  65.3068991  18.8030350
  67.6524902  65.2253265  17.3491203  36.3654685  74.3176270  92.3876762
  35.9414363  75.0807095  92.7802658  35.6408334  73.7544823  92.1156311
  17.6894096  16.8864376  18.8420880  17.4913457  16.1015112  18.3313095
  18.6305049  16.8327600  19.0084850 101.0718394 100.4382737  14.6751129
 101.3157845 101.0248120  15.3911411 101.9069434 100.1396782  14.3150150
  26.7311672  31.3521845  10.9246933  27.2797588  30.7085688  10.4763233
  26.9773296  32.1905310  10.5337822  17.1631944  89.1532803  79.9193287
  16.9152761  88.3567142  80.3886509  17.9137838  88.8929176  79.3854189
  97.5441551  42.7508974  65.1894474  98.1363392  43.0934477  64.5199633
  97.1108723  42.0083046  64.7686720  98.6704160  15.6549436  35.2684223
  97.8334834  16.0684807  35.4799950  98.7627079  14.9560530  35.9159386
  91.8324614 103.0395157   3.8832009  90.9831048 103.4745390   3.8085186
  92.0309687 103.0607827   4.8193466  23.5203555  95.8614047   8.1838905
  22.7957728  95.3932078   8.5986244  24.2979529  95.3542836   8.4171402
  92.7251054 101.9258816  15.2338993  93.4362317 101.3012631  15.0911247
  93.1673957 102.7492888  15.4403126  36.3836673  13.0105717  12.2041809
  37.1429828  13.2569963  12.7323353  35.6483320  13.0335886  12.8165447
 111.0393191  95.8941109  30.0532829 110.4514314  95.9093554  29.2980396
 110.8993483  96.7379839  30.4828274  97.8762795   3.5027248  21.4428913
  97.4571969   2.9256756  22.0813381  98.2346012   2.9093964  20.7827389
  50.2254820  88.7099743  89.7286797  49.7364330  89.5320129  89.7649956
  51.1090565  88.9683342  89.4664192  18.3602049 103.3871348  11.5226757
  19.1316607 102.8273423  11.6105473  18.7022212 104.2786009  11.5901100
  35.7440666  10.5721981   8.3962452  35.0940755  11.2092192   8.6927998
  36.4101032  11.0980541   7.9534161 105.2450420  15.4356367  18.5898697
 104.9505521  15.6170971  19.4823849 105.5075933  14.5153028  18.6067497
 112.4138737  47.0041609  80.7513714 113.1436825  47.0670843  81.3675308
 111.6971207  47.4714041  81.1805344  31.5264610  16.1928923  13.8686478
  30.5744842  16.2846119  13.9081204  31.8523696  17.0921213  13.8311875
   6.0032037   3.3577330   9.3509686   6.5738014   2.6734192   9.7007858
   6.5095619   3.7518818   8.6407005  51.0165170   2.4750835  13.2024872
  51.1978868   2.7483875  12.3032486  50.3509382   1.7926485  13.1157887
  72.0864391  92.3855782  65.3609228  71.8319893  91.5881634  64.8965645
  73.0422258  92.3975468  65.3103447 100.6604386  93.5448010  15.4729092
 100.7648278  93.5290463  16.4242661  99.7401620  93.3241684  15.3292477
  49.5835018  74.8833084  75.7355833  49.0820551  74.8351812  74.9216604
  49.7174740  75.8201218  75.8793259  45.7912636  84.3406677  77.3714352
  45.8227777  85.2153873  77.7588797  46.6712379  83.9881229  77.5040579
  46.1257315  66.1118889  66.6677952  45.5683947  66.2856817  67.4263477
  45.9238672  65.2084732  66.4242268  71.0771704  65.2327204  86.8875885
  70.5293608  64.4670725  87.0605659  70.5536222  65.9749699  87.1895885
  71.3498259  74.9310017  90.8480072  71.8814373  75.6480169  90.5023003
  71.7905998  74.6750975  91.6582298  97.3271611  10.5500061  35.9572041
  97.6961377  10.6924517  36.8288719  97.3994878   9.6057636  35.8178818
  10.6204704   3.8564140   3.1430161  10.3737262   2.9637367   3.3848393
  10.9037450   3.7879497   2.2312653  43.1782296   2.1437771  11.2388241
  42.9555467   2.7789003  10.5581867  44.0902475   2.3360903  11.4567196
  90.5974007  97.8623755  35.1340782  90.5388594  97.9168303  34.1802227
  90.4827548  98.7644608  35.4329693  55.2570775  26.2782843  38.7246430
  54.4905046  26.8187124  38.9157879  55.0272897  25.4105551  39.0570175
 113.3928444  27.2625811  32.1122276 112.5051023  27.4343473  32.4263012
 113.9335801  27.9187948  32.5517857  65.3083563  65.3212214  87.5266075
  66.1146212  65.2970123  88.0419636  65.3560305  64.5435047  86.9706249
  56.5932274  62.1646023  91.5089798  56.4088297  62.4587107  92.4010181
  56.3604355  61.2361431  91.5099621  49.4562244  45.8189631  87.0414734
  49.3328428  46.6476011  87.5044727  50.1346493  45.3643322  87.5407600
  76.9865657  87.5615485  13.6351692  76.5012050  87.7644975  14.4348347
  76.8841959  88.3406646  13.0886089  48.9376450  65.2510262  82.9720306
  48.3107138  65.9520149  83.1503487  49.6932030  65.6970501  82.5893688
  33.9454797  25.4387743  47.9672825  33.4284070  24.9824459  47.3034775
  33.6637071  25.0535328  48.7969887 112.3082782  94.6612914  37.6012337
 112.2594977  95.6132824  37.6882279 112.9832841  94.5156319  36.9383728
  36.7330146  60.7532120  88.7610626  36.2068844  60.7504654  87.9614258
  36.3956213  60.0176573  89.2722893  89.9973202  79.2611170  85.6392097
  89.5810032  79.3717480  84.7844124  90.0719261  80.1501083  85.9861374
   0.6570388  43.8117933  64.1914558   0.0344993  43.7081099  64.9111271
   0.3695156  43.1792831  63.5330534  17.6202396  18.6287290  11.4902031
  16.8215087  18.7455160  10.9757912  17.3355392  18.1515629  12.2696221
  25.6074336  29.8618299   0.4983914  26.3092950  29.3049318   0.1615250
  25.6997207  30.6825334   0.0144875   8.8812926 101.6467030  13.9743149
   8.7810519 100.9022839  13.3809960   8.3651831 101.4099915  14.7449124
  92.5182629 105.0850136  13.8617527  92.9799891 105.9117491  13.7219345
  92.4640561 104.6907456  12.9912102  50.2171377  14.9758751  26.4375698
  50.7377389  15.7356769  26.6981613  50.8524946  14.2636043  26.3652718
  56.2688208  97.7351189  66.7669630  56.5698957  97.5319195  65.8813572
  57.0274830  97.5603580  67.3238516  52.6200822  22.8444368  10.6754982
  53.4447435  23.3143503  10.7993614  52.8551343  21.9207651  10.7638943
  51.3618374  66.1842918  81.9985962  51.4531231  67.1050596  82.2437286
  52.0619965  66.0350513  81.3632011  94.8159123   0.6326484  91.1636066
  94.3163873   0.4404449  91.9571877  95.3534222   1.3897037  91.3964176
  24.8325065   4.9015648  37.2456658  24.8483947   4.9533064  38.2013333
  25.5978158   4.3720562  37.0217144  76.3985634  78.0439854  78.8796091
  77.2427464  77.7624416  79.2322016  76.1601353  78.8054800  79.4082975
  66.4952421  73.3691692  85.3060818  66.8112564  73.6583138  84.4500637
  66.1168051  72.5053263  85.1424026  86.3508035  85.1783521  24.6028626
  86.1954070  85.0447400  25.5378639  86.1898995  86.1117013  24.4642937
   3.3347514   2.5221521  22.7930557   3.5436252   3.4559805  22.8168404
   4.0487722   2.1297390  22.2906410   7.4222234  10.7860357  10.5615246
   7.1070340   9.8846466  10.6277001   7.5427392  11.0648806  11.4692413
  84.7481918  59.1307497  88.7006474  84.3843937  58.3058405  89.0222073
  84.8195267  59.0081930  87.7540016   9.7592357  22.0492536  44.6523678
   9.9409345  22.2847158  43.7425434   9.8300412  21.0948641  44.6714985
  68.5294867  77.6969242  88.4795380  69.4762421  77.6291895  88.3558846
  68.2371855  76.7922974  88.5911179   8.8731864  12.2844822  13.2886994
   8.7651733  12.8309566  12.5102818   8.0742505  12.4291689  13.7956535
  54.5357847  65.6644773  90.0617313  54.5207787  64.7981262  89.6549797
  53.6129045  65.8944941  90.1694965 100.6729317  96.2120819  92.4157810
 101.0082150  96.3968849  91.5384769 101.3511467  96.5412045  93.0056381
  82.6399803  69.0365410  79.6382380  83.4045315  68.9376450  80.2056122
  82.3190784  68.1437635  79.5109749  19.5142701  23.5435993  11.6663849
  20.1929858  24.2162830  11.6109478  19.9975637  22.7181799  11.7030346
 102.4721266  53.0211050   2.3921597 101.5630128  52.9627115   2.0983326
 102.9739000  53.1689054   1.5905296  23.3838800  19.1529400   9.7337830
  23.7442497  18.2758409   9.6031773  22.8718999  19.0839846  10.5395996
 100.9094645  18.1916172   0.5304444 100.6483890  17.5592787  -0.1390446
 100.0876548  18.5899574   0.8171284  23.8351633  44.6077592  28.6386501
  23.9342978  44.6196873  27.6866734  23.2776549  43.8492138  28.8119137
  21.8999151  37.2248632  18.1194508  21.5539983  37.6051981  17.3120320
  21.7118934  36.2894041  18.0432999  38.3317807  43.3188040  18.5542500
  38.0853322  44.2055685  18.2913029  39.2476228  43.3942301  18.8221657
 110.7627012  29.3047983  26.3157093 111.3710262  28.8021643  25.7739269
 109.9448682  29.3072206  25.8183396  46.1322358  17.7301247  31.3488018
  46.9183400  18.1935818  31.0598671  45.4069856  18.2737429  31.0410511
  92.3500014  90.5842454  14.4971573  91.6085864  91.1896665  14.4981777
  92.0122910  89.7912867  14.9135697  21.0641959  39.6906454   3.4559643
  21.0051301  38.7355978   3.4309399  20.2820113  39.9911959   2.9932606
   1.8579390  90.8205302   9.7896301   1.3884499  90.6495388  10.6060707
   1.3337805  91.4882023   9.3472492  24.0697578   2.3555738   0.7161247
  24.2606357   2.9256136   1.4610111  24.7900632   1.7252666   0.7061207
  43.2817030  96.5932941  59.7233438  43.3448029  97.2854233  59.0651608
  43.4674501  97.0337486  60.5526400  34.7460559   4.1303951  14.3968880
  34.6347383   3.7232429  15.2559960  34.1491988   4.8786528  14.4073116
   4.2996457  11.5476734  54.0276062   3.5796359  11.5614588  53.3970272
   3.8770154  11.6774446  54.8765862  65.3173494  59.0660715  82.1243858
  66.2369061  59.1720724  82.3681355  65.1632118  59.7467661  81.4693069
   5.5627825  39.1654586  83.7584496   6.2121584  38.7074470  84.2920876
   5.2707293  38.5117530  83.1231499   4.9974874  22.5419838  13.5458862
   4.2961744  23.1931669  13.5646641   5.6249145  22.8840048  12.9090225
  76.4591694  66.5302229  82.2568512  76.1449671  66.5953064  83.1586647
  77.3242283  66.1276150  82.3330784  62.7139044  66.0580921  78.7998486
  61.8800211  66.2807703  79.2137146  62.5868368  65.1692533  78.4681082
  30.3589586  20.0200064  25.6645882  30.1971963  20.7277805  25.0407993
  30.7832006  19.3362123  25.1462471  19.6454719  55.2751619   8.2589543
  18.7901643  55.6879122   8.1392681  20.0797418  55.3739244   7.4116718
  49.2898035  67.3615837  85.5231094  50.0665474  67.2458506  84.9758339
  48.5554647  67.3050117  84.9117374  74.1629934  56.1888313  85.7714558
  73.8310432  56.5386581  86.5983009  75.0590467  55.9163904  85.9691906
  52.1715450  71.8067694  71.5076590  52.9873323  71.8755627  71.0116816
  51.5901232  72.4504375  71.1028528  59.2489293   2.1600563  38.1458771
  59.1138986   2.1458465  39.0933907  58.6374620   1.5062363  37.8069698
   3.1335880 100.3786182  79.2122221   3.9743854 100.0349903  79.5142221
   3.2029583 100.3765106  78.2575417  67.7669862  18.5019094  50.9951412
  67.1320108  19.2000467  51.1552918  68.0233434  18.2062942  51.8687164
  29.3249753  15.2914411  12.1950161  30.0207952  14.8090965  11.7484677
  29.3992475  16.1847383  11.8592465  51.6544393   6.4352781  16.4897263
  51.6965822   5.5049164  16.2686360  52.5013307   6.6240007  16.8939411
  40.5909923  20.7587559   5.0254261  40.5962661  20.8334190   4.0711605
  40.8944562  21.6124708   5.3341496  87.3772335  57.8371191  81.8143559
  86.6041183  58.1805086  82.2622490  87.1782589  56.9123268  81.6680622
  87.9190922 106.1330891  53.2070160  88.5543823 105.4906178  53.5230350
  87.4008560 105.6579781  52.5574493  71.1730242  60.4039049  90.4380512
  72.0442772  60.5923891  90.7867908  71.2555838  59.5356369  90.0436783
  20.5291465  26.0676271  18.4895527  20.7055190  25.8065922  19.3934261
  20.2334741  25.2641184  18.0615627  43.4421972  -0.0278395   9.1909802
  44.1326955   0.2366335   8.5831082  43.0352643   0.7945187   9.4636738
  29.8127416  27.5023443  17.2640431  29.5840171  28.2661325  17.7937138
  29.9911407  26.8124182  17.9031098  80.9910965  79.7491741  74.9626684
  81.4726067  79.1240072  75.5044603  81.3242531  79.6049309  74.0769863
  63.8220838  14.7277338  25.8534157  63.9368299  14.4945795  24.9321663
  64.1231588  13.9571173  26.3348019  10.3548435  34.5259745  12.5710404
  10.1495460  34.8801214  13.4362995   9.5081428  34.2553598  12.2159493
  67.4488497  90.4342842  87.3128796  68.2185078  90.8167171  87.7343082
  67.8008795  89.7395897  86.7563629  10.8449653  38.5366804  13.6189472
  11.3625625  38.2272131  14.3622887  11.3886932  39.2118055  13.2129872
  99.3546677  79.6227217  84.9942112  99.2165852  79.4007063  85.9150124
  99.9269390  78.9300919  84.6640491  61.6023019  12.8077585  10.6434357
  62.1425966  12.1371204  11.0612499  62.0495656  12.9958898   9.8183357
  67.2228769  47.1979505  36.2186920  67.1132711  47.1891291  35.2678215
  67.4987939  46.3075716  36.4362538  72.7724791  80.0504684  70.5852747
  73.4706306  80.6655121  70.8100891  72.6615095  80.1493263  69.6396828
  67.8660253  27.8023321   3.2951176  67.7919343  27.4968893   2.3909962
  67.0167497  27.5989038   3.6870110  80.8265641  32.8860552  25.7663166
  80.3634027  32.4365885  25.0594246  80.2179101  33.5648901  26.0577976
 102.8083611   4.2499160  92.0204449 103.4127999   4.4173908  92.7435112
 101.9385148   4.3423080  92.4091053  65.2602291  68.3413506  81.7550468
  65.7129622  68.3141899  82.5979805  64.5251226  68.9377308  81.8971062
  68.9189434  82.6869774  89.3127251  68.9727116  83.3586407  89.9925900
  69.3729782  81.9314861  89.6859837  71.6515064  92.0049667  78.6708832
  70.7585478  92.0333576  79.0144587  71.7535543  91.1116028  78.3426666
  75.4191828  58.8641834  82.8744316  75.0778198  57.9895449  83.0607224
  75.1084566  59.4026041  83.6022949  42.9851341  94.5698643  83.2509995
  43.5075235  95.3358746  83.4888458  43.0404186  94.5293236  82.2962570
  73.8401750  12.3003942  34.7610294  73.8400033  13.0963404  34.2293274
  73.7041715  12.6104242  35.6563580  87.0999432  83.5102940  79.4102764
  86.8968868  84.3603897  79.0199852  88.0092907  83.5900497  79.6983004
  30.5085948  35.5280573  57.3178970  30.1491454  36.4089281  57.4232113
  31.4378789  35.6686670  57.1365463  30.2714399  14.9075968   8.1410324
  29.3731931  15.1055557   8.4059822  30.2247670  14.0229542   7.7784550
  57.8967431  20.7374699  16.1758911  58.0185846  21.6401226  15.8816063
  58.6232427  20.2562887  15.7797920  59.4846535  69.0700102  54.2948723
  58.5782719  68.7744379  54.3805408  60.0027657  68.2657385  54.3255472
  38.0750659   9.1282494  24.4840920  38.5671380   8.3080418  24.5209038
  38.1348470   9.4834310  25.3709423 112.6049949   5.6184387  59.9432278
 113.1195594   4.8493480  60.1880980 112.9716302   5.8943653  59.1031837
  14.0663961  19.6159918  16.5920365  13.3502534  19.6435291  15.9575188
  13.7712959  18.9966375  17.2595322  35.8759117  69.3640566  89.6045399
  36.1108971  69.3628025  90.5324554  35.7837534  68.4382486  89.3795586
  22.3781350  31.9467050  10.3006184  23.0496457  32.0905191   9.6338188
  22.0357850  31.0731108  10.1112663  50.4078248  64.0319616   3.9399731
  50.0438836  64.5957262   4.6225845  50.8824304  63.3522684   4.4185078
  27.0335820  89.3240339  18.6920082  27.8878072  89.7306997  18.5465824
  26.4640621  90.0488359  18.9499771  35.8314613   5.9150345   4.2809689
  35.9726909   5.1159412   3.7732994  36.6991809   6.3138182   4.3462479
  54.2142251  48.9015276   8.1661904  53.5507825  48.3256609   7.7861225
  54.3278554  48.5787470   9.0601265  97.9017258  86.7943287  64.7496748
  98.7590885  86.3693237  64.7725201  97.3101902  86.1222553  64.4110823
  48.5457757  12.0554239  13.1135285  49.2727140  12.1347410  12.4958622
  48.5698560  11.1410505  13.3956158  41.7683366  34.8086721  50.0183880
  41.2918952  34.5778353  50.8158505  42.4537423  35.4079515  50.3138649
  18.6305048  67.8125567  21.0823548  18.3775332  66.9296665  20.8126461
  19.2186930  68.1150646  20.3904354  36.0795787  24.6242649   4.3728935
  35.2760318  24.9113876   3.9391911  36.2076381  25.2547485   5.0816452
  53.4916878  89.8452282  62.2462749  52.9200029  90.1123810  62.9660225
  52.8924274  89.5410442  61.5646648  60.2967024  98.5779858  78.5082054
  60.7776976  98.5434151  77.6813555  60.9685087  98.7449455  79.1692924
  45.9186128  12.6776344  19.1726029  45.2214673  13.2000191  18.7759411
  46.7164090  13.1816322  19.0121758  54.5750669  27.4822313  17.2620022
  54.4169954  27.8806860  18.1178581  54.2260698  26.5945990  17.3429215
 111.7079735  64.7745275  61.4961052 112.2873211  64.0470123  61.7226267
 110.8254242  64.4156313  61.5885353  90.9038830  62.8203630  90.3280735
  91.4094543  63.4592915  89.8256683  91.4632320  62.0442677  90.3602791
  64.4686937  62.5911760  89.3747616  64.4778728  63.2856131  90.0334740
  63.5841322  62.6187038  89.0100288  72.2151327  68.3032513  79.3710136
  71.6401529  68.4479570  78.6195564  71.7783689  68.7498283  80.0962925
 100.8677006  97.1730232  79.3472385 100.1718807  96.5157032  79.3496037
 100.4112911  98.0053997  79.4699574  12.1744779   2.6367313   8.4208405
  11.9924596   3.3764393   9.0004456  12.0115093   1.8634731   8.9609730
  69.1638756  84.0038013  79.5030165  69.7795868  84.7143650  79.3235016
  68.5378265  84.0409374  78.7798929 105.3420569  31.0655958   6.9646847
 105.1873423  30.1504023   7.1986115 105.4601075  31.0533697   6.0148728
  48.2590535  48.8489134   5.9973156  47.4661592  49.3601210   6.1591923
  48.5863450  48.6316664   6.8701946  11.4196208  36.5873415  27.8072560
  11.4686492  36.0887224  26.9916546  12.0889476  37.2652513  27.7141392
  45.4173234  32.8905279  41.0379612  45.0666669  33.7560541  41.2480557
  45.6612924  32.5187284  41.8855869  61.8869257  72.9519081  79.5559692
  61.9400311  72.3014212  78.8557720  60.9599686  72.9726934  79.7937775
  34.8248866  44.7931177   1.8543255  35.2871993  45.1548654   2.6103985
  35.1889661  45.2626211   1.1038315  47.4500799  91.8487644  86.3049889
  47.2187996  90.9200001  86.2932587  46.6589355  92.2964096  86.0051060
  14.0834287  50.7963545   1.0423672  14.0401796  50.2264196   0.2745545
  13.5799220  51.5715773   0.7938873  73.2018089 101.1221695  66.6164207
  73.4944439 101.0475922  67.5247335  73.8956833 101.6174412  66.1811352
  41.1538795  35.1146299  30.2960026  42.0582631  35.2746279  30.5656731
  41.0232213  34.1773970  30.4400837  42.4344206  88.1883526  85.3681946
  41.8228054  87.6067924  84.9165916  41.9326639  88.5386944  86.1042309
  66.4822534  20.7268555  23.0194771  67.4037793  20.9722597  22.9370129
  66.4864972  19.7698814  22.9991066  21.1877063   6.8297178  32.1484482
  20.9502509   7.7339012  32.3541081  20.8856252   6.3250620  32.9036247
  53.2467130   5.9605390   8.9561951  53.0315641   5.8561499   9.8830425
  52.4154046   6.1918814   8.5419190  87.8857089   5.6063747  91.8304920
  87.6644183   4.9611282  91.1589813  87.4118281   6.3959789  91.5693474
  50.1521257  51.7458136  18.0094349  50.1055387  52.1589643  18.8716232
  49.2502836  51.7581827  17.6888764  31.1972764  65.1444895   2.5359833
  30.7156375  65.0284941   3.3550083  31.1031488  64.3070108   2.0821106
  21.6468290   6.5456850  13.9648258  21.8099836   5.6317837  13.7316048
  21.5994218   7.0024187  13.1249630   6.4895061  23.5009272   3.0314076
   7.2586063  23.7977678   2.5449860   6.8480829  23.0788500   3.8121140
  30.6216338   0.6312942  89.7195244  30.3054144  -0.2280045  89.9985409
  30.4629996   1.2008857  90.4722691  21.0948995  61.9054396  24.4609749
  20.2910474  61.6557581  24.9167359  21.5727905  62.4410040  25.0942433
  68.4689951  63.7617588  84.1203785  68.1780815  63.5073709  84.9960995
  67.7741766  63.4540081  83.5383606  74.4099426  83.8406277  59.0831804
  75.2350569  83.3582115  59.1350889  73.7343264  83.1731224  59.2024183
  51.0312990  37.0312292  33.0554020  50.7580999  37.7842314  33.5794079
  51.8961385  36.8032343  33.3964169  56.9852689  28.6255724  17.7948582
  56.2585977  28.2114012  17.3294079  56.8146756  28.4405310  18.7183869
  10.6906369   3.9756519  13.9171421  11.2494472   3.1985409  13.9250958
  11.0843137   4.5603878  14.5647061  62.7677631  88.6059666  70.2551794
  61.8493557  88.8448811  70.3803873  62.8314781  87.7133179  70.5948114
  32.7867225  26.7093641  28.9839661  33.6736205  26.9964678  28.7666905
  32.9064134  26.0779411  29.6933472  77.4105310  63.4733438  81.3009071
  77.6524401  63.9520121  82.0937443  78.2297659  63.0814695  80.9983730
  21.8186378  82.2405720  77.6020718  21.1176896  82.1775913  76.9532776
  21.9023180  83.1784725  77.7739906  66.7317867  93.1591225  77.0113659
  67.4345922  93.1533718  76.3615465  66.0539532  93.7144470  76.6261578
 110.4603577   0.2016925  82.6882744 110.0036240   1.0357856  82.5790787
 110.0568772  -0.3786088  82.0427608  32.9169035 104.1052246  88.1898117
  33.1304145 103.5744190  88.9572048  32.6224422 103.4721088  87.5350666
  73.8077593  87.8659916  90.3907013  73.6041784  88.0699539  91.3034916
  74.1833735  86.9860554  90.4199314  13.4774068  21.9415314  41.2243282
  13.0023101  22.7650196  41.3355934  14.2224792  22.0123608  41.8210518
  79.4099665  83.1294060  74.0028095  80.1635361  83.4329510  74.5090055
  79.7321653  83.0745602  73.1031370  51.4201406  57.1642191  18.3808529
  51.7345861  56.6732962  19.1400158  50.5047372  57.3575575  18.5830414
  86.2169456  40.0790930  90.3743172  86.0198689  39.1781020  90.1181602
  86.5356255  40.4920197  89.5717144  79.2115167  41.0196096  15.4117024
  78.8133195  40.2566893  14.9926293  79.2899659  40.7729704  16.3332474
  94.1350556 102.6730235  22.7937424  93.5969210 103.3568509  22.3949635
  94.0357877 101.9199641  22.2112667  57.6427221 102.7997017  72.4810505
  57.8780127 102.6114368  73.3895779  57.7672529 103.7446117  72.3922634
 103.2924701  84.2914660   3.5462391 102.8673840  84.7459300   2.8189099
 102.8651858  84.6397192   4.3287861  54.1310266  27.2848017   5.1533711
  54.8109201  27.5972731   5.7503140  54.2029432  26.3308889   5.1867497
  95.8996582  68.4983015  88.0344868  95.6625462  68.1756115  87.1650696
  95.0989532  68.9051104  88.3655643  45.8936837  20.7214815  38.8709938
  45.8949998  20.3515083  39.7538006  46.2665418  20.0318939  38.3217442
 111.9088269 103.7857039  36.9518196 111.4093972 104.5766146  36.7486870
 112.0475436 103.8264449  37.8980362  46.5480947  81.8863583  91.4560604
  46.8408489  81.3003922  92.1540451  46.8860626  82.7458954  91.7074299
  47.5863743  93.9513493  84.0297794  46.9348478  93.2653427  83.8844013
  47.1426392  94.5882988  84.5898056  75.5597258  95.7485676  57.9393387
  75.3497696  95.3865337  58.8002014  75.7196236  96.6780376  58.1028986
  70.9311536  17.0162279   6.4325154  71.4917520  16.2414629   6.4736950
  70.2398446  16.8459303   7.0722973  29.1070560  51.4605982  14.0979397
  28.8034824  51.1828978  13.2336723  29.5718053  52.2816069  13.9361584
  16.3023856  31.2602217   5.0974285  16.0268596  31.1686403   4.1853249
  17.1589187  31.6845877   5.0474274  94.8293210   3.3697032  91.6733360
  94.5505381   3.7499427  90.8403111  95.5487491   3.9303588  91.9637108
  65.1196149  27.8363878  55.5775749  65.2591089  27.7801401  54.6322643
  64.2182210  28.1452829  55.6686985  37.1783900  97.2810841  63.3540249
  36.7518091  98.0694199  63.0181885  37.0852995  96.6397762  62.6495457
  53.1218389  15.3222639  33.5689842  53.7108568  15.3613741  34.3224823
  52.6565221  16.1585934  33.5850632  27.8568700  50.0662214  47.0471012
  27.2033981  49.4644243  46.6906655  28.0242255  50.6859857  46.3370907
  61.1827135  86.3658619  83.5404301  61.7106724  86.2637234  82.7485657
  61.1094427  87.3128700  83.6589527  41.3858989  46.9999773   7.0625984
  41.5726665  46.9281656   7.9986488  41.9533542  46.3461382   6.6542923
  70.2555799  85.3808880  89.1502285  70.5319357  86.1829853  88.7069607
  70.7811832  84.6905613  88.7459755  36.7541269  35.1096422   0.4988873
  36.9076446  34.9457437   1.4293682  35.9964422  35.6942923   0.4804909
  80.0810910  91.9043858   7.4498856  80.6106091  91.1144145   7.3413098
  80.6665183  92.6207621   7.2043049  62.2667936  16.9648773  21.8784916
  62.8727964  17.6961882  21.7594254  62.7703622  16.3136084  22.3668587
  29.6953824  40.5941946  52.2255337  29.4808296  41.3290197  51.6508686
  29.2529681  39.8433763  51.8295872  79.2147350  69.6924734  92.3578072
  79.0229559  69.3158054  91.4989853  78.4073114  69.5724535  92.8576946
  57.4177694  89.4004917  83.7140751  56.7741823  89.3890190  84.4225216
  57.2583485  90.2273846  83.2590294  73.5264778  52.1066761  82.2730160
  72.7033997  52.5599480  82.0904827  74.1582394  52.5077057  81.6761208
  36.9999889  29.6001894   4.3508541  37.0486882  29.3268377   5.2669060
  37.8754333  29.9331076   4.1533863  87.9342937  76.1218596  81.6729164
  87.3551464  76.3957500  80.9617233  87.5451660  76.5042448  82.4594212
  60.5605558  37.3869593   4.2289459  61.5068963  37.4420530   4.3617546
  60.3722051  38.0534918   3.5682690  25.3141931  18.8748581   1.6827595
  26.0741380  19.1615230   2.1892559  25.4891303  19.1826565   0.7934391
  24.4624666  26.8550856  11.3350212  24.8208001  26.8142301  10.4483616
  24.5293430  25.9579355  11.6619503  37.9616073  22.4862415   3.9461243
  38.6898664  23.0611593   4.1813767  37.1801666  23.0226118   4.0798676
  82.3847008  73.9500952  77.0402479  81.8207073  74.5671320  76.5739775
  82.0982552  73.0882549  76.7379093  30.3650621  51.7715341  29.8574555
  30.7832912  51.1309130  30.4327213  30.0821498  51.2625296  29.0977776
  47.2098020  49.3270666   1.9588482  47.5707868  48.8681490   2.7173435
  46.9770292  48.6299498   1.3455975  67.8875113  69.0959501  77.4090862
  68.1461716  70.0175142  77.4023104  67.2462511  69.0219688  76.7023039
  49.3147138  21.1693603  29.9454224  50.2653554  21.1859686  30.0560581
  49.1291383  21.9018537  29.3578446  44.7195339  96.3686848  89.0392399
  45.3578997  95.6597710  88.9607906  43.9042187  95.9949017  88.7049198
  39.0899920  79.4535685  79.3203211  38.8747406  78.9326000  80.0939465
  40.0205898  79.6549892  79.4185448 109.5812751  31.2376785  81.8163490
 108.8935996  31.0284614  82.4484539 109.3789101  32.1277332  81.5281010
   1.9638302  13.6045646  87.8000355   2.8797486  13.4794711  88.0483818
   1.4708092  13.0801963  88.4310722 103.2413197  99.1701825  13.7230503
 104.0546561  98.9283974  13.2800400 103.4480811  99.1055663  14.6554196
  24.8756316   3.1307887  86.9645882  24.7457125   2.6744937  87.7959442
  25.8252337   3.2238197  86.8882751 105.2759647  86.8452549  48.3075666
 105.1021099  86.6703129  49.2324448 104.4172859  86.7912006  47.8880548
  34.5353750  47.7306921  28.5933125  35.2494100  48.2250196  28.9958393
  34.1611436  47.2218306  29.3125164  45.0615457  25.6706411  54.3964779
  44.7288469  26.4357693  54.8656475  46.0125783  25.7787496  54.4059097
  32.2596744  21.8602163  14.5318424  32.3323158  22.4189026  13.7580025
  33.0321029  22.0741922  15.0551045  62.5193977  82.7032757  86.0157585
  62.5568628  82.7731800  85.0618458  63.3513069  82.2970963  86.2590027
  44.1043237  22.7481968  37.8115093  43.7404302  23.3915169  38.4197342
  44.7289613  22.2482998  38.3370220   1.4707807  12.7550299  26.2477886
   1.6620639  11.8240864  26.3617432   0.6698159  12.8984291  26.7518913
 111.6956329  68.8263798  74.6736193 110.9631062  69.4248676  74.5271921
 111.3823128  67.9810858  74.3518353   7.3299601  22.1999359  71.5962267
   7.6454546  22.8534793  70.9720564   7.8655531  22.3368930  72.3776484
  17.3637965 102.0511992  24.5101368  16.9625475 101.9722207  23.6446964
  18.0201151 102.7404149  24.4078648  49.1361764  25.4529554  10.4365265
  48.5273412  25.1472456  11.1089050  49.9868062  25.4731876  10.8749973
  40.3879216  44.3316824   3.3017361  39.9090055  45.1297457   3.5252678
  40.4404786  43.8454801   4.1245758  87.8685665  73.3108854  78.3480978
  87.7304363  73.2466793  79.2930984  87.6777649  74.2254400  78.1397390
  83.3323816  38.6564428  37.8465950  83.5894349  39.0424234  37.0092308
  82.3770765  38.7161524  37.8546440  25.0396037  58.9081192  59.4601154
  25.1949525  58.2240152  58.8088846  25.0481796  58.4468222  60.2987814
  11.4292291  43.8606913  29.4058144  12.3063997  43.5050947  29.2631352
  11.5797714  44.7113306  29.8180973  72.3762798  84.7744942  77.3507929
  72.3664618  84.9378967  76.4076948  71.5870142  85.2067947  77.6770020
  28.5526851  47.6625997  44.6149265  29.2902902  48.2275183  44.3846428
  28.6489490  47.5145704  45.5556976  86.4114857  84.8911285  64.2210484
  86.4685631  84.3943501  65.0372505  85.7292461  84.4469833  63.7175465
  34.2500881  21.5597946   5.8458435  35.1472190  21.2260420   5.8458817
  34.1170076  21.8891174   6.7346966   6.4302352  16.9646389  11.1331570
   7.2583154  17.3463184  11.4244187   5.9584668  16.7696030  11.9428646
  52.3442415  39.0505964  15.5751049  51.7075303  38.4393198  15.2047455
  51.8115762  39.7290117  15.9901440  11.6123583   7.0809173  80.0456524
  11.9762423   6.9749545  80.9246254  12.1704104   7.7402782  79.6332836
  28.4200098  86.2047775  15.3422844  29.0092471  85.8009727  14.7051251
  28.7412550  85.9014566  16.1914169  29.2759088  28.9893038   3.7403023
  29.8691514  29.3873102   3.1032097  28.4246162  29.3858797   3.5552132
 104.2038155  66.3223028  69.5685434 105.0379276  66.7493582  69.7637653
 104.4447422  65.4321480  69.3120146  36.9494152  93.3104324  86.0059166
  37.0121121  93.6249924  86.9077778  37.8579473  93.1818390  85.7334042
  32.3538354  43.3324987  26.0839474  32.8784087  42.5882322  25.7887757
  32.9890874  44.0365297  26.2144386  81.0430336  66.9066000  87.9627323
  81.0314465  66.7905760  87.0126629  81.0194302  67.8552103  88.0884838
  24.0953353  32.0611269  15.9185326  24.3014863  31.9952471  14.9861252
  24.0500358  31.1532862  16.2185490  40.1409152  29.8018820   1.7735397
  40.4807523  30.0256903   2.6399433  39.3067601  30.2677996   1.7157662
  44.7246888  74.2824442   4.9002468  45.2542165  74.9220354   5.3764259
  44.7019914  73.5161096   5.4733479  63.1648827  73.8457632  64.6376371
  62.9241276  73.0767250  64.1210651  64.0056705  74.1244030  64.2747784
  26.2960103  33.6962873  16.5293133  25.6617740  33.0050737  16.3390362
  26.4426091  33.6336309  17.4731457  75.4228163  81.3558960  82.8997612
  75.6730366  82.0300388  82.2679710  75.8707142  80.5659485  82.5971317
  32.5816348  24.7586281   8.6518585  33.1132129  24.5377857   9.4166386
  32.4044994  23.9168007   8.2321179  81.8911648  94.0861702  82.1015453
  82.2942257  94.9132633  82.3655319  81.0991478  94.0245152  82.6355267
  43.2344678  39.0211851   0.4307854  44.1426423  38.7787802   0.2500069
  42.8086999  38.1966860   0.6656372  89.5869064  77.7990723  88.0215645
  90.1460838  78.2791996  87.4107933  88.6968422  78.0660820  87.7919388
  24.0239862  48.8609774   6.5093147  24.9693588  48.7115938   6.4957726
  23.9255718  49.7395689   6.8762314  70.6577161  22.6809246  58.3056175
  71.3838533  22.2621090  57.8435146  69.9041894  22.5591595  57.7280342
  82.3773575 101.7834854  47.6554966  82.7554798 100.9980297  48.0508709
  83.1130981 102.2069359  47.2132254  78.7525415 106.7486477  59.8512173
  78.1207752 106.8478107  59.1389847  78.2169199 106.7178917  60.6439304
  39.3960050  19.2762930  31.6632378  39.3836549  20.2003128  31.9127762
  39.7456601  18.8253195  32.4317372  20.0533727  13.5283405   5.9756004
  20.8077195  13.0207331   6.2748253  20.1979640  14.4049055   6.3319218
  59.2124939  68.3288765  81.2098598  58.5327482  68.8289595  80.7580853
  58.8720703  68.2085514  82.0963478  33.2371763  82.7427370  14.0557778
  32.7772477  83.2475454  14.7264969  32.8458312  81.8704206  14.1021454
  41.8965578  74.3997860  56.2857723  41.1602497  74.8959303  55.9281015
  41.9660568  74.6952724  57.1935654  66.5324116  79.6249056  70.0655508
  67.3138762  80.1769352  70.0941277  66.2617922  79.6402264  69.1475296
  36.6536668   7.8183777  14.1344654  36.2421802   7.2743732  14.8060047
  37.5386337   7.4639351  14.0482056  41.7448285  57.7292520   3.4839165
  42.6988366  57.7550013   3.5576260  41.5217784  56.8037874   3.5839188
  41.7224410  41.2742121  17.1801388  41.1694339  42.0531637  17.2405064
  41.1235669  40.5430014  17.3315155  38.5415366  60.9562570   7.2419369
  38.3950094  61.4091188   6.4114678  38.5208514  61.6507227   7.9003536
  59.1915658  43.7667162  11.8752777  59.6360544  44.1503508  11.1193096
  58.9419702  42.8889543  11.5863526   3.8865998   6.1728763  74.9321890
   3.6625721   6.8455505  74.2891026   4.4865611   5.5886459  74.4685745
   9.6665385   0.7893752  59.4962931  10.5355456   0.5023002  59.7767591
   9.8201468   1.6281509  59.0614557 100.9611225  76.9744635  78.1508064
 101.7039299  76.4991856  77.7785349 100.6791496  77.5639820  77.4513817
 103.1501007  92.1466541  91.8210697 102.7241516  91.5543079  92.4406815
 104.0850544  91.9694138  91.9243431  36.6664672  53.8082886  81.7302799
  37.2525740  53.4210730  81.0800743  37.2407198  54.0485620  82.4574280
 109.2058086 105.8631611  80.7744598 108.3981133 105.4261780  80.5044556
 108.9262772 106.7381859  81.0435963  65.9780935  48.6591703  11.3461411
  65.4137471  48.7664301  10.5804741  66.2564901  49.5484621  11.5649521
  11.2370779  30.4587745  83.9708900  11.6377165  29.8324108  84.5737076
  11.1325362  31.2567138  84.4891548  43.4402803   7.5727398   2.3639404
  44.2691949   7.8088219   1.9475186  43.6812642   6.9267923   3.0279553
  44.3640760  67.2739012  16.5303337  44.8739389  66.7856104  17.1767437
  43.5281041  66.8099100  16.4845574  49.9254564  28.1637270  25.7641613
  49.6291593  28.8017923  26.4132511  50.5239538  27.5925619  26.2456143
  57.7996111  92.5251484  91.8903065  58.6511230  92.3466778  92.2894478
  57.4831009  93.3079529  92.3411751 101.7444375  54.5316107  20.8261978
 101.7264131  55.2744848  20.2228272 101.3171819  54.8563940  21.6187870
  60.8628610  45.4243547   5.3247463  60.6950143  45.6497652   4.4097340
  60.9837869  46.2677843   5.7608998  81.1396077  49.7829706  31.2467110
  81.8795923  50.3534586  31.0388863  80.3674463  50.2953417  31.0069668
  10.4600337  25.8007938  14.8260605  11.0084251  25.4768879  15.5406105
  11.0669664  25.9273655  14.0967858  70.6670907  41.1235125  35.5094635
  69.7886518  41.2693865  35.1583302  70.9948877  40.3645498  35.0270188
  74.4375852   4.6763069  24.1475689  75.3375581   4.9712355  24.0086662
  74.5027211   4.0322859  24.8527062  58.6018848  40.3170490  92.5408173
  57.9328775  39.9272180  93.1035709  58.1065893  40.7695293  91.8580437
  56.5362120  98.1846905  80.6583881  55.6901646  97.7371883  80.6450748
  57.1529484  97.5413799  80.3090668  67.0615482  93.1005669  73.5294724
  67.5246191  93.0323219  72.6945257  67.7146339  93.4460831  74.1380215
  28.1721690  19.8903465  72.4972725  29.0368082  19.8412609  72.0895815
  27.9020789  20.8007717  72.3771858  52.3162988  33.3751947  16.6006767
  52.9842809  34.0572340  16.5309441  52.8129342  32.5614530  16.6867268
  70.4041532  66.5610964  13.0162823  70.9753564  66.9079763  12.3309910
  69.6798280  66.1539919  12.5410282  82.3140860  29.8782920  69.0388680
  81.7534257  30.5936717  69.3390846  82.0831967  29.1401672  69.6028709
 110.2057552  80.8563232  58.9729023 109.9202347  80.1017094  58.4578514
 109.8909092  81.6148472  58.4812307  94.1084671  82.5315666  84.2408657
  94.0576839  83.3236122  83.7057686  94.9756527  82.1717548  84.0544224
 107.6926231  83.1927299  55.3671598 106.8444538  83.4734631  55.7107067
 107.5096226  82.9254341  54.4664431  53.2219938  10.7746441  25.6511795
  53.0150464  10.7435495  24.7171318  53.2066205  11.7065985  25.8690083
  75.3942537  95.1606750  64.4356728  74.5351410  95.2364445  64.8509073
  75.4652691  95.9423828  63.8878393  88.6088994  58.8792974  25.5166542
  89.1241697  58.0808050  25.4020893  87.8584531  58.7658388  24.9333965
  31.2022689  47.2014982  18.8334477  30.9885791  47.7773363  19.5675957
  32.0646432  46.8471128  19.0501511  94.1021729  74.7370672  84.9020576
  93.9468670  75.3673649  84.1986084  93.6248112  73.9529896  84.6308041
  84.3988895  81.7375183  88.5035133  83.6154842  81.4624310  88.0272293
  84.5048523  81.0795498  89.1905975  14.7328332  24.8244650  11.6850769
  15.4271463  24.2546780  12.0160019  15.1650241  25.3735287  11.0308849
  39.3440536  50.3849298   3.6122238  38.4042171  50.5333883   3.7166035
  39.5131067  49.5738394   4.0915882  54.7825959  39.3105394  14.3710339
  53.9213899  39.1424925  14.7535526  55.3195337  38.5710031  14.6556675
  27.4618533   3.7268829  86.7864132  27.6089575   4.6711349  86.8410397
  27.9896452   3.3608055  87.4960995  61.6776231  42.1030790  24.1573536
  62.5916055  42.2465593  24.4028771  61.2342313  41.9143755  24.9844086
  73.9711145  61.9105799   4.1219723  73.2092431  62.0339758   4.6881401
  74.1710618  60.9769327   4.1895878  70.8595136  86.7591841  23.9290344
  71.3454107  86.8811876  24.7446644  71.2621358  87.3743421  23.3160793
  34.1430238  47.6708776  12.1390640  35.0210813  47.4612886  12.4573624
  34.2397693  47.7262289  11.1883747  46.2310746  37.4058515  11.4754021
  46.5355542  36.7866690  10.8119690  46.9163659  38.0730993  11.5127384
  23.5448077  12.2074794  80.1782036  22.8782084  12.8041934  80.5184937
  23.4311011  12.2379779  79.2282677  92.6240063  35.2077985  82.4974632
  93.4357834  35.3555751  82.9826641  92.0614338  34.7344112  83.1103706
 101.6842270  75.7213449  90.2465439 102.3373127  75.3418970  90.8345318
 102.0924664  75.6875992  89.3814278  16.6192296  63.5099203   7.7962696
  16.6139940  64.1346437   7.0710575  15.7028774  63.2523043   7.8970921
  37.4486211  35.6332380  16.0398018  36.5706971  35.5934698  15.6604683
  37.3061279  35.5500204  16.9826710   7.9586794   2.9880905  78.8146973
   7.5499346   3.6919403  79.3184376   7.4500468   2.2081661  79.0366173
   3.0045989   0.7813072  44.4139147   3.0312970   1.7276859  44.2729235
   3.1229308   0.6763553  45.3579569  34.5990661  59.4127256  19.7330486
  34.9159578  58.6475069  19.2531979  33.6762193  59.4832594  19.4888985
  60.3942540  24.3669159  23.1942475  60.4405263  25.0381023  22.5133621
  61.2551072  23.9487488  23.1772434  22.6941922  71.8952543   2.0539772
  22.8682283  72.4631864   2.8045666  22.9440740  72.4200804   1.2934887
  82.9313138  66.8867189   3.4803879  82.4726442  66.8711931   2.6403820
  82.2800687  67.2100527   4.1029370  74.8035386  35.8102590  32.5774586
  74.6466878  34.8729498  32.4630081  75.4000142  36.0419638  31.8655789
  73.3522752  20.2954227   0.7917607  73.8309530  20.9013397   1.3574135
  74.0180066  19.9417860   0.2018749  56.8753624 103.3802700  86.9617653
  57.0816231 104.3148613  86.9469452  57.4583006 103.0168819  87.6283836
  13.9390329  51.6546518  29.3246567  14.6544841  51.7966921  28.7048256
  13.6991552  50.7354910  29.2070210  37.3619607  38.3459455   2.5550759
  38.1266931  37.8558523   2.2530281  37.4010995  38.2865030   3.5096275
  69.8627141  57.6753599  26.8680393  69.4811872  58.4924108  26.5469372
  70.3478673  57.3272974  26.1199009  67.9848862  84.3360329  82.5168037
  67.4171066  84.0037060  83.2120895  68.5311604  83.5879421  82.2756004
  72.2296003  18.2343180  33.7054741  72.7065709  18.8038189  34.3091309
  72.9099038  17.7106125  33.2822239  62.5763086  16.2475902  12.7417385
  61.7030671  16.0881693  12.3836147  63.1000951  15.5078585  12.4340355
  73.9695072 105.9919262  89.5873165  73.2269907 105.9082031  88.9890766
  74.3376112 106.8538952  89.3930340  32.3128084  80.2559263   7.8758728
  33.2422069  80.4383356   8.0143559  32.3007062  79.4377024   7.3792946
 100.4734802  76.2792730  87.0380783 100.1971436  76.9470167  87.6657677
  99.7334385  75.6740046  86.9909191  93.4522533  85.2543926  83.6575222
  92.8971291  86.0308838  83.5857868  93.4981346  84.9095631  82.7657795
  94.7853184 105.0144768  91.9021511  95.0896740 104.3894482  91.2441730
  95.5570984 105.1906109  92.4402618  99.4957829  59.1139412  81.9964981
  98.8552284  59.6059322  82.5101757  98.9904594  58.4045029  81.5995407
  52.7610353   4.4324810  30.6582367  53.2916311   5.2283365  30.6945145
  53.0356553   3.9264566  31.4229214  75.8982944  80.8095360  66.8313551
  76.2312555  80.2196503  66.1550331  76.4273739  80.6110287  67.6039457
  66.9475511  13.3233721   2.0526135  66.2141279  13.7346537   1.5952503
  67.4915937  14.0563805   2.3406231  18.3694700  33.0804331  50.4567730
  19.0729621  33.5815699  50.8693134  18.8215020  32.4088175  49.9460518
  60.4343224  22.9076529  51.7808104  60.6022358  23.0401969  52.7137995
  60.7439995  23.7123060  51.3650370  91.5693483  66.7999650  78.9029169
  92.2687862  66.5468789  79.5053816  90.9292910  67.2498322  79.4544411
  25.6261300  82.0176340  49.7649193  25.1232385  82.4650694  49.0843773
  25.3978919  82.4774886  50.5728006  47.3039579   6.1457539  60.1546335
  48.1774664   5.8718729  59.8749733  47.4298429   6.4759713  61.0442066
  92.2105417 105.0740849  76.5977669  92.1554372 104.2761613  76.0719204
  91.3437483 105.1596648  76.9947243 104.2125962  82.6758862  87.4717045
 105.0953767  82.3183132  87.3764324 103.7500594  82.3844553  86.6859818
  90.5869172  98.6350668  79.0014601  90.7381175  98.1503052  78.1900549
  89.9623344  99.3187488  78.7591648  91.7366601  52.2091558   0.0239479
  92.3603631  52.2425853   0.7492840  91.7909623  53.0758211  -0.3787601
  84.0971658  86.2213159  83.7846661  85.0195423  86.2796927  83.5355759
  83.9259688  87.0334662  84.2614555  86.9836340  94.5563162  87.7010632
  86.1109207  94.5280421  88.0932426  86.8228350  94.7064150  86.7694855
  31.2544250 106.4601076  28.3077455  30.5371141 107.0138549  27.9994178
  31.1268710 105.6275990  27.8528929   0.0646948 100.4530973  57.9509306
   0.4789495 101.2738425  58.2173920   0.1242947 100.4538441  56.9955873
  43.7409115   6.2422532  79.5103168  42.9150629   6.3031793  79.9904108
  43.8555527   5.3057635  79.3488312  75.5643702  15.5343413  61.8766212
  76.3386440  15.5341530  61.3138342  75.0162983  14.8301828  61.5301943
  82.5055648  38.9403791   5.8102333  81.9159890  39.6195502   6.1378872
  82.1453429  38.7022502   4.9559605  70.9563375  31.0371215  26.2931645
  71.2328006  31.6651900  25.6258404  70.2011228  30.5938489  25.9066498
  11.1406720  13.7936139  90.2712727  12.0896327  13.7821078  90.1464844
  10.9151864  14.7231495  90.3080368   9.6523952  82.7535129  66.7073107
   9.8485850  81.8627167  66.4170980  10.4935836  83.0986858  67.0064545
  82.9517523  89.3526924  57.6818562  83.4487650  90.1604832  57.5526953
  82.9245029  89.2375279  58.6317158  32.7239198  84.2995317  19.1602623
  32.9685668  84.1906626  20.0792420  32.4448622  85.2126963  19.0932572
  41.0659218  31.7903519  81.1013508  41.1828184  30.8469224  80.9895039
  40.1171780  31.9169450  81.0917187  66.0174752  76.4012868   9.0060341
  65.8313156  76.2162406   9.9265396  66.2863327  75.5579097   8.6418068
 103.9355851  99.2235358   5.2033722 103.2649947  99.7773440   4.8035824
 103.8845254  99.4226201   6.1382496  18.4555387  85.0795246  44.9737692
  18.0900239  84.8728014  45.8339453  17.7313375  85.4850054  44.4969559
  72.3375655  22.6756556   8.9674484  71.8646551  23.2828672   9.5365536
  72.5983954  23.2065613   8.2148945  48.5786951  77.2026117  18.6127960
  47.6477415  77.4209054  18.6564457  49.0232433  77.9811652  18.9481461
  52.9799795   8.6492509  73.8082314  52.3560667   9.2681056  74.1876888
  52.4402905   7.9162437  73.5121441   5.3255856  18.3984995  65.0564623
   5.0043648  19.2695510  65.2895260   5.7250023  18.5133064  64.1941881
  23.5280538  18.8902342  81.3683224  23.5576010  19.4779110  82.1232986
  24.0802336  18.1497765  81.6194153  28.2602024  15.1251471  77.1148491
  28.7370610  14.3404269  77.3851299  28.7393165  15.4451776  76.3504791
  28.3560752  94.5838380  71.2097692  27.6219606  95.1241267  70.9175348
  27.9503678  93.8879097  71.7267942  36.5129447  35.1599169  65.8148050
  36.5783215  35.2526116  66.7652607  35.7658243  34.5764995  65.6818867
  95.2728806  67.3690177  79.6905994  95.0005028  66.9419098  78.8784266
  96.2210748  67.4668193  79.6034527  25.3409003  97.8414614  75.9241152
  24.5865726  97.4462033  75.4870844  24.9596786  98.3996738  76.6018343
   5.5166233  18.8219345  59.8698187   5.0155699  18.1549919  59.4003868
   5.5632383  19.5591402  59.2610598 106.6070221  95.6865287  74.4560909
 107.0227144  94.8372949  74.3069839 107.2510026  96.3253713  74.1504717
  84.1978738  88.8940132  84.4957542  84.9532322  89.2832304  84.9364090
  84.1942809  89.2956389  83.6268997  70.9465743  84.3800862  21.9601643
  70.5785156  85.1304944  22.4267018  71.4763141  83.9266999  22.6159489
  30.6549454  26.7027426  78.1236506  31.3147259  26.0306573  78.2945967
  30.2861309  26.4653969  77.2728443  99.6153781  77.7988816  81.6660976
 100.1394484  77.7507592  82.4656391  99.9447796  77.0847321  81.1204624
  16.8920327  91.9942482  36.1477101  17.8358425  92.0433052  36.2995159
  16.5015508  92.3006113  36.9661820  92.6998291  91.0447991  71.6521072
  93.2190654  91.2242902  70.8682632  91.7915914  91.1343003  71.3634443
  82.8698254  16.6392171  85.6348324  82.4295521  16.1117136  84.9684048
  83.7526131  16.2726939  85.6857491  48.7758398  12.7122319  75.3163958
  48.8455105  12.6225960  76.2668419  48.3226871  11.9179702  75.0334930
  24.2349315  15.3845298  61.6116810  25.0449276  14.8934460  61.4739370
  23.7342238  14.8521304  62.2298002  58.5159660  56.9880925  14.1219151
  59.4052387  57.3422466  14.1234791  57.9732872  57.7019189  14.4568550
   8.2332658 100.0763727  40.1474524   8.8546800 100.3142268  39.4593382
   8.5560989 100.5268628  40.9278822   3.1268977  88.9565576  82.9550171
   3.2682132  88.2311822  83.5633755   2.7334832  89.6453179  83.4908009
   7.7680110  72.1195341  44.4187164   8.3771896  71.4881778  44.8015022
   7.3598432  72.5457526  45.1723528 107.7591376  20.7099056  75.0629139
 108.2030116  21.5575647  75.0368023 106.8945156  20.8806944  74.6894264
  70.2584744  10.7213337   0.4424584  70.7076097   9.9398501   0.1202881
  69.9360824  11.1551077  -0.3475654  83.3313751  13.2081985  58.8251591
  82.4452209  13.5265815  58.6530876  83.6480999  13.7572908  59.5423841
  31.3782573   3.0345044  57.6805305  31.8322802   2.5744125  56.9745493
  32.0780802   3.4488660  58.1852913  36.2542272  21.9228244  47.5576830
  36.2998128  22.0854235  48.4998655  35.3999400  22.2665429  47.2963667
  74.8460913  22.9089427  87.4642563  74.3382835  23.6531758  87.7874851
  74.2095852  22.1976209  87.3927879  94.6473217  10.5143070  53.4960794
  95.2071762  11.2001002  53.8600683  93.9082241  10.4617512  54.1020489
  87.0528079  63.6301143   2.9064190  87.6907492  62.9248751   3.0155193
  86.5686274  63.6449285   3.7319958  16.0063350   8.3467919  86.3827229
  16.0493672   8.9421350  85.6344223  15.0934994   8.0599010  86.4083576
  25.4953980   9.3209261  62.9161406  25.2424765  10.0646091  62.3691511
  25.3193593   8.5529661  62.3725605  52.3944283  17.6317406  71.3236952
  53.2381439  18.0781054  71.2520456  51.9210243  17.8857756  70.5314922
  95.0434686  62.2489150   4.2559063  94.1997004  61.9576801   3.9102566
  95.3722192  62.8629322   3.5992920   0.0904488 100.2067429  70.5020571
   0.9783219 100.1230139  70.1543474  -0.2717067 100.9704143  70.0527477
  64.9385477  48.5060627  32.1801102  65.3017498  48.6442287  33.0548775
  64.7884131  49.3884958  31.8409931  64.0610529  47.6029630  23.0158627
  64.7078682  46.9327487  23.2364857  63.6971856  47.8715719  23.8594734
  61.3887144  31.6723354  19.1459763  61.1130024  30.7851036  18.9156830
  61.4817668  31.6545875  20.0984776  21.1573123  92.8211153  79.9015713
  20.9324359  93.3305705  80.6801128  20.3142404  92.5302530  79.5539141
  51.3869680  24.0678365   8.3134472  50.9013332  24.7830279   8.7244141
  52.0930947  23.8727434   8.9295304  34.2851567  20.5897617  56.4552593
  34.1087556  21.5305305  56.4469337  35.0380802  20.4924035  57.0382357
  67.0620943  26.9929488  23.6944019  67.5504590  26.5051086  23.0312740
  66.9579864  26.3750632  24.4180119  51.0501051  25.7881379  48.2311773
  50.8107567  25.9359479  47.3162508  52.0071077  25.8073497  48.2345057
  77.0211292  99.0618117   6.2722218  76.2144614  98.5878546   6.4744293
  76.7273618  99.9356921   6.0147965  70.8253813  34.4894338  84.4265652
  70.2185678  33.9898443  83.8802910  71.5157413  33.8652420  84.6502209
  55.7786942  35.8207273  69.5554733  56.2321520  35.8152413  68.7125158
  55.1992607  36.5813112  69.5107985  26.7575455  35.0038791  87.3924541
  26.9938993  34.2447114  86.8595123  27.4180126  35.0253487  88.0849552
  43.4367418  18.3182538  89.3120098  44.1541052  18.8110530  88.9135551
  42.7975798  18.9855230  89.5619297  68.1116367  60.0793941  23.2027924
  68.1980348  59.1574569  23.4452831  68.6531688  60.1726742  22.4190342
  55.0082588  23.7748790  84.4650650  55.4288912  22.9347539  84.2820549
  54.7375631  23.7126946  85.3810883  23.3039904  22.7941298  79.5818472
  23.8529515  23.3050680  80.1766682  23.7602496  21.9572449  79.4942045
  19.0483236  14.0423214  67.0548725  18.9628291  13.8430142  66.1225653
  18.8637388  13.2126343  67.4950790  84.9566031  59.6304179  17.0786869
  85.2978946  60.0362391  17.8755963  85.7109786  59.5845265  16.4912903
 100.6613658  78.0523086  89.2727280 101.3506100  77.5301672  89.6832561
  99.8680732  77.8258920  89.7581673   6.3860017  16.3070512  58.4198618
   7.2193044  16.5215719  58.0005503   6.3026446  16.9458866  59.1277933
  25.7246852   1.8087414  70.9080696  26.3770032   1.7283025  71.6039467
  26.0813427   1.2932295  70.1846933 107.8133605  94.0853906  89.5977688
 106.9515536  93.6834741  89.4883060 107.9600570  94.5635319  88.7816238
 107.5066946  98.2711053  87.8403568 106.7257664  97.7177805  87.8257275
 107.1847150  99.1328699  88.1047916   2.7065000  27.7829814  58.5162401
   2.7246034  27.1350741  57.8118801   2.5171924  27.2743583  59.3047190
  78.2833863  90.4649718   2.5146019  78.9414502  89.9055607   2.1020043
  77.4865485  90.3119833   2.0067894 100.3727246  47.0581914  39.7462189
  99.7435380  47.7742649  39.6590531 101.0962296  47.4347247  40.2472126
  92.9167319  74.7945745  16.5695202  92.5466681  74.5932992  15.7100022
  93.5338021  75.5072815  16.4036762  24.8775363  10.9669030  89.9126816
  24.7038722  11.6212976  89.2360497  25.8002925  10.7407796  89.7959900
  47.6493692  19.1754532  81.3435841  47.5993061  18.7464142  80.4893875
  47.2238922  18.5635674  81.9442463  77.9810048  44.0722568  13.2078278
  77.0514274  44.1159810  12.9837620  78.2663060  44.9857761  13.2256615
  69.9578596  45.8177085   3.1152260  69.2566419  45.4111130   3.6243450
  70.7438398  45.3271587   3.3556950  75.7117320  30.8379943  16.8655789
  75.4828430  31.6976841  16.5123474  76.3177539  30.4687364  16.2232315
  53.1131077  24.1497326  90.9656906  52.7900124  23.2682180  91.1521626
  54.0659904  24.0695763  91.0083294  80.4045773   4.8656154  86.8976593
  80.5178070   5.3507078  86.0802841  80.7016850   3.9789829  86.6931057
  86.2603045  51.1283308   6.6359627  87.0702554  51.5877460   6.8576729
  85.9830809  50.7218136   7.4570095  32.4830341  16.2929273  59.6411943
  32.8589106  15.5044186  59.2497826  32.5652957  16.9608057  58.9604568
 100.2008296  72.5611718  13.7917244  99.7037698  71.7634292  13.9727413
  99.7909547  73.2287617  14.3417751  28.0458163 102.8840009  80.6426907
  27.2425937 102.4914912  80.9847546  27.7547788 103.4220753  79.9064827
  63.1699777  74.7937925  21.2896835  63.6441232  75.5360324  21.6645157
  63.0619622  75.0203903  20.3659832  94.8612262  64.1759844  11.9780266
  95.8109761  64.1656871  12.0967877  94.6275473  63.2585497  11.8368256
  44.1477823  40.7683134  70.6773615  44.5448303  40.7841492  69.8065376
  44.8745871  40.9431934  71.2751913  15.7831776  10.9300423  84.1489124
  16.1593771  11.7720437  84.4053078  15.0510764  11.1591876  83.5764122
   5.2046775 102.1313444  69.4793653   5.2129506 101.9649047  68.5367823
   6.0476064 102.5489775  69.6562386  50.1266956  29.4098878  91.8723392
  49.8005009  28.7885284  92.5232887  50.8765078  28.9679170  91.4739990
  25.2794504  10.0376606  81.1241436  24.6282935   9.4045502  80.8218193
  25.1970315  10.7739520  80.5180740  19.7522795  39.9735785  61.0679674
  20.2864838  40.4162025  60.4084682  19.0451574  39.5650625  60.5686426
 104.1790772  71.1982698  23.3022225 105.0535775  71.4068766  23.6307919
 104.1449643  71.6055734  22.4366772  74.3946243  80.8332760  39.4135773
  75.2122784  80.5615361  38.9966499  73.8373400  81.1138542  38.6876690
  68.6259151  21.0515006  28.0321324  69.2947174  20.3834851  28.1827843
  67.9712439  20.8925970  28.7121212  10.4673910  17.1923971  69.7372437
  10.7102990  18.0716002  70.0274706  11.0676479  17.0039284  69.0158558
  97.5611017  80.0396610  64.3472195  96.7752693  79.8030568  63.8545609
  98.2596014  79.5216942  63.9471674  57.7419376  17.3652768  54.6675062
  58.6528397  17.2151232  54.4146347  57.5708151  16.7118394  55.3457165
 106.9486849  10.3825939  74.9654102 106.9204830   9.8787916  74.1520119
 107.8070627  10.1848340  75.3399944   2.2552394  99.7804767  69.0258074
   2.8294467 100.3036410  68.4665060   2.0984553  98.9795781  68.5255957
  23.1207013  36.2158251  58.6529112  23.0245924  35.3373146  59.0206337
  22.5080800  36.7537498  59.1544771  61.1550760   9.9972034  89.8865414
  60.6196499   9.5645612  89.2214298  62.0567560   9.8508686  89.6005440
  34.3224049   0.9193277  89.0143299  34.7668147   1.1550651  89.8286724
  33.6953378   1.6279550  88.8698769  71.5360452  82.8929908   7.7150929
  70.6255413  82.8447111   8.0064404  72.0175029  83.1993253   8.4835922
  48.4599304  15.9811699  84.6032524  48.6039114  16.5219319  83.8266659
  48.8958359  16.4567053  85.3104210  83.8491822  76.0243900   0.9292614
  84.6633054  75.5747492   1.1556732  83.8203526  76.7785389   1.5180409
 108.0593584  83.6303068  65.8267975 108.9701722  83.8299108  66.0431528
 107.6795361  84.4754124  65.5864525  13.2610202  22.1238899  62.0664692
  13.9789236  22.7546144  62.1215487  13.1661630  21.7904568  62.9586887
  49.5876455  46.9213724  61.5605927  50.0358677  46.0930681  61.3895893
  50.2458334  47.5919914  61.3781548  53.4753275  26.5329337  63.2056952
  53.5749149  27.0070148  62.3801279  52.8253222  27.0374870  63.6947250
   6.0976886  93.0457771  61.1713171   7.0535421  93.0711592  61.2152386
   5.8418321  92.4419606  61.8685818  83.7616492  46.6649945  15.4451382
  84.6223403  46.2995429  15.2404701  83.8927413  47.1422173  16.2644684
  73.5989500  38.0981441   6.3909828  73.4243489  37.6856990   5.5450356
  74.3063117  38.7181754   6.2137043  13.8472569  11.2111080  87.1875668
  14.2895329  10.5156291  86.7008114  13.1654716  10.7592142  87.6847458
  82.8648282  55.0427757   8.6583340  82.6003695  55.8184157   9.1529762
  82.0592738  54.7396417   8.2394993  46.8084574  37.8638530  82.5369358
  46.5207672  37.7626824  83.4442520  46.0572386  37.5825071  82.0146847
   5.2057027  95.1390219  82.6963520   5.8012962  94.3922842  82.6340389
   5.7818221  95.9026301  82.7312946  12.9429162  17.1015632  78.4478331
  13.2120097  17.9326487  78.0565310  13.3927083  17.0777345  79.2924309
  90.0565884  68.0863929  91.6952991  89.5246468  67.3491574  91.3957024
  89.5066366  68.5324431  92.3393631 102.1561147  27.9121883   4.6956837
 101.7946053  28.1331451   5.5540096 102.4195433  28.7535555   4.3229401
  28.7618303   4.9816108  79.1279364  29.1460872   4.5765108  78.3504581
  28.0578041   5.5334759  78.7873125  93.4101725  70.3160865  15.9569084
  93.6804915  70.9662492  16.6053211  93.4872866  70.7689281  15.1171314
  81.0296298  61.1202271   6.9318020  80.8016492  60.8399726   6.0453999
  80.1872969  61.2218995   7.3749363  72.9296780  73.4271987  47.1222126
  73.3948780  73.5082467  46.2895977  72.7376581  72.4926312  47.1993076
  54.4693661  11.8675148  87.4230480  54.6856785  12.1435738  86.5324116
  55.0892448  12.3410583  87.9777908  73.0121280  35.8697386   1.9429218
  73.7791372  36.1904116   2.4173653  72.5804354  35.2770312   2.5582039
  43.8986683  12.0065427  84.1079426  44.6189404  12.6307821  84.1960526
  43.2406616  12.3102498  84.7332573  74.8287821  12.4675798  63.0040121
  75.1436281  13.2815015  63.3972502  75.1698017  11.7785096  63.5742044
  37.1144151 102.3369057  82.1581650  36.1912679 102.4258254  82.3950768
  37.5591039 103.0129403  82.6694965 110.8166011  38.3509159  63.4611082
 110.5468859  38.5891819  62.5741386 110.2334614  38.8517928  64.0314579
  12.8545940  21.3615346  83.8999748  13.1334138  21.4122295  82.9856873
  13.2112372  22.1529293  84.3033695  59.6837473  16.7225170  65.9023762
  59.7149801  16.4397359  64.9884319  59.8240995  17.6686454  65.8652782
  53.6672629 106.4003499  11.3098442  53.9043129 106.8512900  12.1202099
  52.7713025 106.0975630  11.4575112  42.4492073  21.5028763  87.8509712
  41.9406700  21.3041258  88.6371803  43.3185244  21.1450553  88.0312061
  74.4591332  74.0889151  12.5576508  74.2195869  74.4489725  13.4115898
  73.8049556  74.4441206  11.9558918  27.2509360  30.8142686  48.8562679
  26.8299437  31.5991139  49.2070007  27.8174567  30.5093265  49.5649958
  93.0239508  99.7785473  35.9430242  93.1564603  98.9833415  35.4269624
  93.2073436 100.4931766  35.3331852  45.4418130  66.9987996   8.5469353
  45.3710610  67.7491970   7.9569065  46.3134170  66.6416318   8.3767330
 112.0685109   4.8965302  72.8818035 112.6367296   4.2829368  73.3474874
 111.4128870   4.3420151  72.4588346  37.5675011   3.5159329  86.1885071
  37.4246526   2.9260504  86.9286919  38.3554411   3.1788367  85.7621956
  83.7081782 105.7013501  76.3113213  82.8834269 106.1858215  76.3474369
  83.9126400 105.5080018  77.2262239  51.3069773  41.2917089  72.7474451
  51.0090923  41.3909292  73.6516857  50.9946632  40.4254675  72.4860716
  42.0026350  10.4418993  41.0950184  42.5255728   9.9472171  41.7259359
  42.4582624  10.3239477  40.2615166  42.8137970  48.4186983  79.5454311
  43.5520744  48.1505108  78.9983940  42.3151016  49.0227938  78.9953327
  72.3753595  46.4527702  92.2560692  71.5589285  46.1027956  91.8994236
  73.0250025  46.2890291  91.5724182  62.3151708  88.2045705   9.7269070
  61.7556167  87.5971849  10.2108681  61.8167520  88.4112270   8.9362728
  68.5119868  42.1471090   9.9722683  68.8773847  42.9985840   9.7320473
  68.9956404  41.8919499  10.7578957  37.6196527  18.5478771  82.5403023
  36.8362236  18.2839012  83.0227852  37.2856784  18.8980746  81.7144394
   2.0989855  36.5933990  49.2599678   2.0932442  36.5319681  50.2151775
   2.9807472  36.3194346  49.0076399  78.4315682  62.5701351  37.5487911
  78.7470246  62.6070632  36.6458237  78.8899661  63.2840271  37.9920304
  10.1633430  24.0613389  83.6842251   9.2983431  24.2728305  83.3331203
  10.4006040  23.2383251  83.2569218  55.3422594  31.0976934  81.4640427
  55.5806684  31.0270834  80.5397034  55.2348328  30.1916790  81.7535686
  33.6830521  21.3164997  51.5706158  33.3034658  20.5992174  51.0630226
  34.0973330  20.8871818  52.3191404  63.8341618  53.5648203  92.3888588
  64.2549610  53.3531761  91.5555763  62.9500628  53.2068539  92.3084450
  39.2792462  92.0843590  84.8954105  39.5779847  91.4976180  84.2006302
  39.8222398  92.8666306  84.7982311  67.0939875  14.9642026  75.9795332
  67.8047562  14.8374176  76.6079903  66.9129515  14.0867925  75.6424665
  78.8366176  47.5385596   1.8839085  78.9620400  46.9842066   2.6540959
  78.9744902  46.9510360   1.1409104  40.7976913  35.8998585  81.8704319
  39.9160886  35.6719589  81.5753555  40.6577301  36.5132236  82.5918293
  38.4775352   1.0625508  72.1330786  39.2091322   0.8478654  71.5543604
  37.7995181   0.4252998  71.9084978  61.9216276  62.5705434  21.6652119
  61.6297770  61.7169781  21.3450825  62.3460699  62.3802526  22.5017941
  38.4276223  35.0205135  59.0992451  39.0304637  34.4635153  58.6067343
  37.7221346  34.4316673  59.3671560  74.0720069  80.7990933  78.1447744
  73.9128775  79.9568749  77.7186584  74.0020791  80.6109882  79.0807009
  66.4362288  52.5682370  20.6568539  66.3356615  52.4876532  19.7083676
  67.2188068  53.1077347  20.7697594  20.1810025  94.4183767  82.1453857
  20.4394483  95.3354800  82.0539570  20.4321860  94.1867507  83.0395317
  35.7201600  33.0436134  50.0480747  36.5868545  33.4295917  49.9212170
  35.7954621  32.5487018  50.8639336  73.2817841  94.9613841   3.3887303
  72.4302531  95.0001414   3.8241875  73.0796529  94.7006066   2.4901974
 109.2914245  85.8322669  79.4184828 110.2436945  85.8383155  79.3216324
 108.9907382  86.5603304  78.8746643  53.7570072  79.0200026  32.3168862
  53.2957710  79.8513229  32.4282467  53.1566180  78.3637364  32.6705563
  20.2492476   3.7279719  68.2495165  19.6876717   3.8381225  69.0168047
  21.1393571   3.7325400  68.6015368  83.7401152  30.4671295   0.2269280
  83.9079762  31.1072190   0.9185517  83.6629773  29.6315629   0.6874859
  36.2332010   5.2288687  63.8997221  37.1868920   5.2999985  63.8591242
  35.9155440   6.0482097  63.5202408  25.5817127  38.6915374  70.0161123
  24.8016071  38.5451651  69.4810963  25.7952332  39.6147418  69.8807192
  17.7662671  13.2722676  29.3145227  17.4625993  12.6142323  28.6892176
  17.2671235  13.0936658  30.1115108  50.6584215  12.1336865  67.5911903
  51.3988590  12.7156222  67.7624702  50.0765371  12.6454771  67.0293093
  78.9251281  79.1703327  15.7676804  79.3994189  78.6766679  16.4366829
  78.3335019  79.7370989  16.2626373  77.9115582  34.8396230  74.1590595
  78.2519913  35.6233692  74.5904255  77.4187899  34.3850946  74.8422956
  63.7791348  29.3984079  87.2689056  63.5976315  29.2324352  86.3438511
  62.9519749  29.7284079  87.6198292   8.2066297 102.4053401  72.0763969
   7.7971172 101.9255537  72.7963543   8.0900764 101.8385202  71.3139296
  54.4016933  32.4700499  65.0658226  53.5080910  32.5060892  65.4070091
  54.6443653  31.5461493  65.1270390  31.8903136   2.3679563  71.4918709
  31.3119268   3.1263652  71.4111423  32.6391196   2.6901323  71.9935942
 110.4520948  24.0936279  89.3852901 110.9799840  23.5115027  88.8387680
 109.5469303  23.8657808  89.1731739  37.9875827  32.1314502  61.6443825
  37.4676323  32.0603800  62.4449062  37.4018764  32.5521016  61.0149145
  17.5690030  95.1873470  47.8994513  18.0474233  95.2186645  48.7279224
  17.7875327  96.0119904  47.4653530  68.0056859  78.9059932   6.3974583
  67.5399042  78.1316192   6.0818302  67.4335814  79.2710240   7.0725071
   3.3901471  44.8925734  75.7331276   3.3936965  45.8100176  76.0061121
   3.3292904  44.9269724  74.7784853  16.5307143  36.6573865  18.9480793
  15.9311678  36.1731608  18.3803665  17.4029829  36.3860567  18.6621582
  28.5663462  39.9194574  78.4686327  29.1644812  40.1212358  77.7490854
  28.4004593  40.7645750  78.8863516  99.1044042  90.4293192  87.8744793
  98.9454434  90.3461409  88.8147068  98.8504598  89.5803249  87.5125980
  51.4998674  16.5719891  75.4155064  50.6228018  16.2246871  75.2531052
  51.4574766  16.9232714  76.3049078 102.1296189  93.3025539  38.1572652
 101.2702177  93.1438363  37.7667904 102.6458142  92.5316752  37.9216385
  15.3814744  94.5302618  78.4649229  15.4216050  95.4375494  78.7673283
  15.4214048  94.5938659  77.5106716  90.1488496  99.2203887  12.2362244
  90.2897788  98.7201626  11.4323914  89.3239404  98.8838561  12.5862324
  85.7566071  42.2194607  27.3386490  85.1899958  42.0049496  28.0797112
  86.4942742  42.6881976  27.7289879  64.4685364  40.5430889  86.4415741
  63.7259865  40.8034515  86.9866085  64.5321417  39.5954132  86.5603065
  49.8741245  23.2860327  88.4819412  49.3257952  23.4291840  87.7105331
  50.5838871  22.7244139  88.1704140 105.4265452  77.9403026  11.2065231
 106.3165236  77.9357297  11.5588772 105.4040576  77.1976645  10.6030285
  41.0542456  72.0800550   9.5084202  41.2117053  72.7505798   8.8437187
  40.3591085  71.5353615   9.1391956  33.3797884  10.4099751  42.1468544
  33.4109497   9.8196882  41.3939810  33.8844919   9.9604732  42.8246880
  83.0728389  73.5464365  16.5844738  83.1114913  72.8610380  17.2515309
  83.6368609  74.2419250  16.9227230 104.1606972  76.1966396  53.2828569
 103.4361265  76.1550880  52.6587534 104.3557022  75.2815152  53.4847307
  85.2964307  88.8369329   2.1959221  85.5952502  89.7268350   2.0088017
  85.6646825  88.3069975   1.4889633  97.8101779  77.9204137  24.4432938
  97.1273661  78.0641420  25.0985348  97.8874207  76.9682581  24.3827450
  96.7139531  44.4656785  14.8796475  96.3862658  43.7152989  15.3754151
  96.9075251  45.1261730  15.5448639  29.7180128  61.5261364  68.3911705
  30.4751372  61.1947203  68.8740301  29.8849726  62.4640799  68.2983494
   1.0430000   6.1306632  75.0003767   1.7338426   5.5208713  75.2594566
   1.4308667   6.9973785  75.1211882  88.5098157  92.6622642  34.2007422
  88.6074696  92.0537532  34.9331427  88.9521024  92.2303892  33.4699225
  29.3424368  30.1424241  71.5742970  29.0869546  29.5367217  70.8785343
  29.9316120  30.7638001  71.1465216  42.9910374   7.8648329  59.0905571
  42.8692961   8.6617357  59.6066570  43.3146524   8.1744480  58.2446003
  69.9871683  12.6839948  70.1089287  70.0592899  13.6177003  69.9108791
  70.8333063  12.4546027  70.4931927  17.1387780  24.6704865  64.0193272
  16.8386006  25.5546880  64.2298365  17.6501024  24.7758007  63.2170296
   0.9206771  26.3945746  63.3525324   0.0966427  25.9333992  63.1959534
   0.7165851  27.0204449  64.0474176  47.2478342  15.2704251  48.9902020
  46.3039446  15.3086269  48.8357735  47.4418497  14.3355238  49.0576601
  73.8122606  24.5790124  67.9284859  73.0211878  24.6512914  68.4625387
  73.5004759  24.6567845  67.0268393   3.4402179  83.5297990  46.4235735
   2.4880027  83.6196113  46.3855171   3.6114120  82.6498962  46.0878754
  33.0847549   6.7542475  76.3868427  32.5229025   7.1431023  75.7165098
  32.6192641   5.9639060  76.6605425  45.3944683   4.9273127  73.0283689
  45.3950882   4.4009030  72.2289181  45.0220013   4.3500876  73.6949348
  69.7440577   0.1975406  84.2671108  70.5443907   0.6206556  83.9561844
  69.0565348   0.5336599  83.6921597  22.2697687  24.3077946  77.6847649
  22.6180863  23.8006067  78.4180212  21.3576221  24.4756484  77.9215050
  99.2230416  34.7151430  32.8753960  98.6823703  33.9333196  32.9879009
  99.6965075  34.8000486  33.7029564  41.4890671  43.6981487  59.2068720
  41.9820881  43.1958818  59.8556280  41.1134911  44.4259310  59.7023535
  25.2186942   4.9956357  68.1085300  25.4262280   5.9242743  68.2124090
  25.6393504   4.7468138  67.2855043  47.1781457  84.5871646  33.7220871
  47.6547981  83.7612660  33.8053238  47.8356219  85.2614529  33.8932240
  54.8457492  84.9024661  10.8874905  54.8321391  84.6210058  11.8022740
  53.9435781  84.7888215  10.5884850  48.7021255  22.4701118  78.3284950
  47.7566051  22.3528409  78.2364464  49.0243721  22.5326848  77.4293470
   9.1838259  31.3852739  73.6385870   8.6414969  31.2440753  72.8625870
  10.0750494  31.4602876  73.2975197  50.8234478  66.3820488   2.6089012
  50.8163799  65.4507716   2.8300488  50.3446580  66.8016036   3.3237183
   3.7516736  73.2117034  63.5587883   4.0739154  73.9209009  63.0025244
   3.0648088  73.6161924  64.0887308  42.4498606  13.0700350  68.9041615
  42.8651762  13.9306915  68.9590597  42.4485016  12.7468371  69.8051453
  37.3564778  76.1350830   1.3526547  38.1520563  76.6673286   1.3534462
  36.7193274  76.6574581   0.8654129  40.1379585  13.2681429  67.0932674
  41.0911560  13.2658744  67.1806765  39.8628831  14.0939379  67.4915504
 108.5049582  36.5624876  14.3453133 108.1783725  37.4514432  14.2062676
 109.3853141  36.5692503  13.9695942  91.5605546  47.6362110  30.3651917
  91.2520409  48.0387456  31.1769879  90.7808638  47.5838984  29.8124039
  25.1403236  90.3166259  79.3172789  25.2516412  89.3727565  79.2034769
  25.7535075  90.7069326  78.6944628  74.6759487  37.2822053  23.8917648
  74.2212439  36.6302891  23.3583939  74.5131040  37.0088525  24.7945320
  44.9712276  29.8408270  72.0677757  44.6223688  30.3562117  71.3405180
  45.7124853  30.3532434  72.3905706  83.8540746  61.3390435   6.8281662
  83.8128329  61.5173919   7.7676975  82.9385281  61.2934090   6.5526211
  82.3754454  98.0316908  18.7108528  81.5122653  97.6310332  18.6077797
  82.1974374  98.8865025  19.1030800  92.3768351 101.0086990  92.0003510
  92.2390590 100.4934353  92.7951813  93.0138753 100.5037183  91.4949799
 108.7012956  95.8144725  32.2651124 108.7797258  95.3294135  31.4436507
 109.4833062  96.3657368  32.2933531  89.2520524  76.1921413   8.6793720
  88.3037377  76.2225015   8.5528481  89.6152020  76.3598402   7.8097546
 105.7186887  97.6983208  90.2995586 106.0212252  98.6060137  90.2713394
 105.5679772  97.4674810  89.3829155 106.4381504  26.5000272  52.7095509
 107.0139980  25.9825969  52.1466208 106.3516235  27.3390794  52.2570705
  82.4321318  46.8269361  10.5459320  82.1683932  46.0533531  11.0441696
  81.8116570  47.5057663  10.8113205  18.2860612  79.1937423  81.3659477
  18.0009126  78.7337542  80.5764294  18.7638091  79.9562598  81.0395241
  54.2533207  37.1537757  74.5928192  54.0508795  36.5082169  75.2699518
  55.0918341  36.8667150  74.2312574  43.9271069  20.6340027  83.3078098
  43.6783838  21.1161804  84.0963936  43.7976456  19.7141325  83.5387039
  28.5364539  34.7891707  43.0248463  27.6924814  34.5768054  43.4233963
  28.6452109  35.7274516  43.1798660  78.7333727  20.6030321  90.5811691
  77.8700972  20.9433889  90.3463364  79.3091249  21.3670015  90.5481720
  78.3843995  88.9027650   7.5723278  77.7563334  89.0149410   6.8587601
  77.8556491  88.9607317   8.3681214  53.6114168  44.0462732  89.7652817
  52.8964472  44.4794369  89.2990017  53.6567831  44.4986343  90.6076336
  41.5002060  38.7404203  83.1614971  41.7545843  39.3709993  82.4877739
  42.0001030  39.0015078  83.9349079  62.1102476  50.4682541  86.2463188
  62.3773289  50.3310156  85.3374386  61.5484524  49.7195625  86.4465237
  27.3296404  38.4536576  53.4104252  27.1777582  39.3473458  53.7178135
  27.1962810  38.5000944  52.4636984  37.0174599  15.1939821  70.9836197
  37.4037361  14.8459244  71.7872858  36.7424583  16.0812092  71.2147760
 110.0264550  89.1951211   3.7586128 109.3049479  88.5678442   3.7118733
 110.5747224  88.9863212   3.0022823  55.3541660  21.4129806  55.3454876
  56.2167311  21.2024212  54.9878836  55.4924774  21.4619422  56.2913752
  43.1428289  24.4509339  70.2416515  43.2077169  25.1946926  69.6426153
  43.7819386  24.6402311  70.9286308  99.0480328  19.1815269  46.5531731
  98.3965874  19.2037272  45.8522081  98.5773659  19.4901383  47.3274279
  29.4232828  56.3704873   2.8431141  28.4760577  56.4985399   2.7921498
  29.7926200  57.1390609   2.4082386  28.7013105  20.7224495   8.8067543
  28.1446842  21.2133963   9.4112122  28.1366638  20.0247318   8.4741985
  64.3558645  25.1461315  48.9249563  64.8188448  25.5608916  49.6528721
  64.0653658  24.3038106  49.2747211  69.8449898  10.5259097  72.9864502
  69.7309542  11.4762092  72.9990864  70.5784798  10.3806210  72.3888588
  29.6035289  90.2040840  50.7857847  29.0272903  89.5210100  51.1287022
  30.0887489  89.7762156  50.0802946  48.0116987  34.1319227  63.9648628
  47.5096130  33.4016156  64.3265152  47.9562902  34.8149109  64.6332121
  82.0835018  21.4217472  75.7689428  82.9363918  21.6546750  75.4021215
  82.1442127  20.4815698  75.9380960  94.2235518  53.6206429  15.4769528
  93.7267686  54.1556313  16.0960114  93.5580445  53.2271297  14.9126255
 107.3087264  72.6873715  11.7808354 107.9043532  72.8045220  12.5209248
 107.6212836  73.3068497  11.1214554  17.9543614  53.5337162  85.1369095
  18.0592871  52.6394081  84.8122025  18.6994672  54.0103388  84.7710133
  55.4193569  83.7606080   0.2305233  55.3258599  82.8161604   0.1059735
  54.6617115  84.1373713  -0.2169788  84.7463417  48.3519220  82.5813103
  84.4003963  48.3260489  83.4734344  84.9421215  49.2760992  82.4270439
  87.6730204  98.7078173  14.0527165  88.1697846  98.3110840  14.7682964
  87.3725224  97.9650052  13.5291111   7.7279379  80.6911714  13.3617031
   7.8469756  80.8955581  14.2892182   6.8250468  80.9475834  13.1739056
  46.0913801  21.2242985  69.3334579  46.5484190  21.3291764  68.4989786
  45.4339790  20.5496740  69.1633511  70.4145288  72.1838093  80.8761501
  70.5030346  71.7192173  81.7083454  69.5197201  71.9975090  80.5918217
  80.5030824  88.5711296  12.8083145  80.1732446  88.9766986  13.6101544
  79.9046422  87.8421505  12.6449406  14.2523479  25.4186368  92.3707676
  14.2753053  25.4747105  91.4154911  14.1631961  24.4833231  92.5537205
  62.7118063  57.4586439  88.9202023  62.3537254  57.6154900  89.7939396
  63.4554386  56.8742228  89.0674782  71.5601969  13.3973205  66.9421339
  71.3769722  12.5901902  67.4229670  72.2024918  13.8574553  67.4824715
  49.3697357  45.1934481  92.5838375  49.8388147  44.4588709  92.1881104
  48.5031176  45.1707697  92.1780205  56.3247312  68.8540156   6.4363491
  56.4069045  69.7242792   6.0463249  55.7936550  68.3605857   5.8112728
  64.9131489  15.3159237  88.2490730  64.0885878  14.8820567  88.0297852
  65.0972843  15.0405049  89.1471100  65.6344604  10.4175138  55.0237370
  65.0576973  10.6656396  54.3012381  65.8785295   9.5113933  54.8350286
  59.6856022  30.0980949  84.0368462  59.2202473  30.6142950  83.3786488
  59.5346689  29.1887927  83.7787342  52.1813202  31.8215418  66.4634705
  51.2970734  32.1859503  66.5027618  52.0658636  30.8913374  66.6574240
  15.5298138   5.0307059  91.6754818  14.9625742   5.7082343  91.3074780
  16.4149964   5.3828776  91.5824318  54.8971367   6.1355329  67.6073980
  54.2328167   6.2951279  66.9369936  55.1049042   5.2050650  67.5219870
  97.0483924  78.9834578   4.8272621  97.0389033  78.3372767   4.1211521
  97.6240779  79.6784527   4.5081913  95.8770082 101.0286373  86.9277000
  95.9117553 100.1552463  87.3178482  96.7323778 101.1397827  86.5127087
 104.8059560  61.2204279   7.1750366 105.5954505  61.0718430   6.6546070
 104.1066027  61.3133223   6.5281212  49.4363689  37.0006609  66.4772844
  48.6989450  36.7650247  65.9143353  49.0319490  37.4033737  67.2457266
  77.7174473  18.2637453  36.1614513  77.2463894  17.5401473  36.5746617
  78.5507298  17.8811872  35.8866382  42.9224348  34.8909783  77.3716164
  42.7911329  34.7188807  76.4392138  43.5851145  34.2551804  77.6415300
  46.7880487  19.0432227  76.0095215  47.3248005  18.9214349  75.2263880
  45.9974098  18.5309768  75.8400345  72.8870488  89.9833162   1.2301171
  72.3786116  90.6967409   1.6158020  73.4775830  90.4161437   0.6135475
  36.1264491  47.7172232  70.4919863  36.1800718  47.2049665  69.6851730
  36.4888263  48.5716486  70.2577448  23.2639933   9.9709278  72.3686552
  23.3319545   9.1093886  72.7801895  24.1533637  10.1661992  72.0734930
  41.9419193  28.7240434  70.3252411  41.3330030  28.3604145  69.6824121
  42.8089523  28.5514545  69.9582195  39.1057706  42.8773403  88.2740021
  39.7226238  43.6059332  88.2041740  39.6403480  42.0963573  88.1307507
   9.9221900   7.9765541  15.0101483   9.3889812   7.2285635  15.2792847
  10.5986121   8.0433638  15.6841004  68.7446905  93.0315239  22.2130692
  67.9506636  92.7944214  21.7339718  69.2392588  93.5773880  21.6017830
  70.2812792  99.1131146   4.8053276  70.7998277  99.8997719   4.6364891
  69.3807245  99.4301064   4.8742783  48.5163736  34.1610527  88.0718803
  47.7461433  33.9757729  88.6091423  48.2787848  33.8515592  87.1978092
  25.8757806  40.7094288  87.5957775  25.6563139  39.9101877  87.1169472
  26.8181205  40.6446409  87.7507973   0.7681992  69.2878754  14.1638481
   0.4022458  68.4289904  14.3751061   1.5541985  69.0942616  13.6530125
  25.0892352  72.7778316  68.4247828  24.5321273  73.2663465  67.8187943
  25.1788472  71.9133068  68.0237818  91.1556435  77.3661454  13.5299027
  91.2514401  77.9741938  14.2629349  91.2354041  77.9161031  12.7505409
  67.4772978   4.5088646  91.8812847  66.5919828   4.8437685  92.0237255
  67.6697254   4.7214013  90.9680271  95.7073879  25.7163167  62.4297190
  96.1990070  25.3162718  63.1470156  95.2246094  26.4333296  62.8408718
  25.2073386  46.9760568   2.5584614  24.5816805  46.2992562   2.8167545
  25.6296923  47.2367222   3.3769428  72.8343344  32.2992492  55.7798529
  72.3355484  32.9249620  55.2545595  72.4208307  31.4543772  55.6025457
  21.4728689  44.0019274  58.6262274  22.1061563  43.9204121  59.3393469
  21.9204116  43.6323929  57.8650570  16.4799869  20.8997560  91.9994736
  16.1405587  20.8088136  91.1091042  16.1628342  21.7546964  92.2905445
  42.9785347  35.3671169  56.8021250  42.2075224  35.9265447  56.8959761
  43.6259270  35.7502556  57.3940039  40.0481987  29.4120240  44.0582705
  40.1874542  28.7979531  43.3373308  40.6284428  30.1475358  43.8618708
  55.5383587  26.7558908  89.0918446  55.5509615  27.5013304  89.6921730
  55.6492519  27.1450591  88.2243919  78.3497763  68.7775762  12.8084576
  78.8405801  69.2675645  13.4681904  78.5822726  67.8627522  12.9674351
  19.8000228  19.8265505  72.3026085  20.4965544  19.9989474  72.9361343
  19.5153308  18.9335251  72.4967480  67.6519012  54.8768520  86.3597012
  67.6719332  54.8730707  85.4027271  67.3669624  55.7612133  86.5898132
  37.7596688  24.7076583  69.5976400  38.1557012  24.5268726  70.4501104
  37.1844077  23.9595938  69.4373083  36.1557722  52.9136181  84.9985123
  36.1105037  53.8165951  85.3128624  37.0527458  52.8159475  84.6789265
  32.4441552  31.3638496  79.1156292  32.9086399  31.9433975  79.7194624
  31.8179131  30.8952594  79.6674252  70.9063244  23.3007741  61.7036200
  70.0709486  23.2432342  62.1673775  71.1049986  22.3979926  61.4551306
  85.3958369  87.8098948  24.6900952  84.9745131  88.3710415  24.0390694
  86.1729670  88.2988222  24.9607384  72.1328926  11.7184162  83.2613182
  72.0404959  12.2824967  84.0291119  72.6523829  12.2352731  82.6455116
  22.6297402  29.8678851  87.8305435  23.1108594  30.4911542  87.2862148
  21.9102144  30.3790212  88.2010174  67.2132778  25.7222939  49.7235394
  66.7611885  26.3018227  50.3367281  67.6311302  25.0645232  50.2793932
  75.8188391  11.7355013  60.3195047  75.4833031  11.9785190  61.1824036
  76.7613745  11.8925166  60.3761005  65.6759168  66.5940101  25.1976025
  65.3436828  67.4096150  24.8225796  65.6633783  65.9729500  24.4693482
  24.7401595  16.7639160  82.8739738  24.3191934  16.0875380  82.3433781
  24.2237329  16.7924547  83.6794090 101.7527581  43.9903743   2.9307091
 102.0635129  43.4437813   2.2089684 102.4763633  43.9938475   3.5572922
  63.2090855   6.5970075  90.7942772  63.6917353   6.7394966  89.9800396
  62.4094439   6.1462384  90.5229568  19.6167945  87.1441043  92.6244450
  20.2396106  86.7012644  92.0480537  18.7599515  86.8241561  92.3421574
  51.1166716  72.0668526   8.3800041  51.5160418  72.8191419   7.9432022
  51.2590850  72.2280593   9.3127167  43.5574150  59.6156025  77.0632744
  42.9502821  59.9798012  77.7074671  43.1163120  58.8323021  76.7344999
  57.4173021   3.6957479  64.2445326  57.1145725   3.3565950  65.0868845
  57.4810266   2.9225039  63.6839390  43.7720442  32.9121566  52.0607233
  43.5751247  33.6976814  52.5710249  44.7047329  32.9855514  51.8583965
  88.6827899  75.8154256   0.9616673  89.1850282  75.0144417   1.1113655
  88.5351849  75.8323700   0.0160706  72.7790571 102.8191216  25.5689346
  73.5292436 102.2256024  25.5344498  72.9860426 103.5039647  24.9330246
 107.5948621  88.5757167   8.7571633 107.4183656  89.3386300   8.2066738
 107.8196574  88.9438136   9.6116841  32.8483796   3.2468867  92.7857399
  32.3755217   3.8923806  92.2604084  33.7493300   3.2910633  92.4654770
  48.8267994  36.2822008  81.9606018  48.1345081  36.9430876  81.9745922
  49.1255999  36.2290883  82.8684139  63.1738138  35.3979182  87.5266266
  63.8761997  34.8785734  87.1352673  62.4539280  35.3390908  86.8985081
  35.6768727  46.1097813  68.3471203  34.7520208  45.8739948  68.4198284
  36.0519218  45.4360914  67.7799225  68.1373812  82.5386436  23.2719338
  68.4850312  83.2665999  23.7871563  68.8177586  81.8668659  23.3170235
  69.5275116  18.3807647  69.1276217  69.8538637  18.2142770  68.2433081
  70.2428818  18.8436711  69.5637274  38.2486486  29.4551420  81.9033241
  38.0271721  29.3261504  80.9810829  37.5454402  29.0164399  82.3821545
  21.0822344  40.7914591  57.0801926  20.5635524  40.0221157  57.3153782
  21.6296721  40.4977703  56.3519812  92.8845645  94.3885977   6.9650185
  93.4290601  93.7484677   6.5067684  93.4719325  94.7862465   7.6077473
  24.0735963   6.7559034  11.0760700  24.4801811   7.3350317  11.7206871
  24.4872669   6.9933493  10.2461731   4.4318821  79.4475348  12.3388397
   4.5892050  78.6469300  12.8393566   3.8970473  79.1650040  11.5969765
  60.7792569  95.7617457   8.5769283  59.9432636  96.1157591   8.2735836
  60.8030749  95.9705718   9.5107662  52.8592587  39.6582842  87.4855232
  52.3932076  38.9678597  87.9570580  52.8769159  39.3578458  86.5768719
  60.2407455  12.8119290  72.7319336  60.4002905  11.8786418  72.8724718
  59.3288136  12.8584468  72.4447918 104.8290110  77.5707896   7.5473225
 104.8790694  78.0849988   8.3531201 104.7655774  78.2236083   6.8501579
  67.7759171  24.5488238  90.2803135  67.4616480  25.1403880  90.9640694
  68.7266254  24.5383096  90.3910828  62.3362255  25.0791883  70.9740210
  61.6547394  24.8474884  70.3430557  62.8792572  25.7203150  70.5154276
  79.6799565  96.1484272  11.3866532  78.7525035  96.3600762  11.4928257
  79.7638846  95.2597077  11.7321503  86.6250992   7.5719893  90.6843090
  86.6623878   7.6459932  89.7307110  85.8896446   8.1290990  90.9391975
 100.2362443  65.5973501   8.7319481 100.4528333  65.5825908   7.7996933
 100.9542085  65.1238771   9.1521656  51.2266779  38.1552029  61.6654825
  52.0241022  37.8802061  61.2130213  50.9788847  38.9746976  61.2373972
  47.0122630  75.3830559   9.1270554  47.5563312  74.6062596   9.2567074
  47.5231499  75.9375985   8.5373890   9.5003986  67.7519274  41.8078327
  10.0667714  68.5231352  41.7814398  10.0208377  67.0585609  41.4020967
   6.1806300  69.3730874   4.3190205   6.0746672  69.2132421   3.3812248
   6.0960677  70.3220708   4.4112885  50.1187229  26.0312963  80.6048775
  49.5964479  26.6264796  80.0670910  49.4927835  25.6569862  81.2248135
  44.9954653  47.3837757  83.2601452  44.6214771  47.3038626  84.1376305
  45.0366163  46.4846039  82.9345226  58.7700129  32.9308558  72.5741100
  58.0234766  32.8264594  71.9841766  58.3941412  33.3008194  73.3729124
  48.7728405  50.0353527  82.3439121  49.6773195  49.7254467  82.2979259
  48.6876488  50.3954983  83.2266712  69.9216343  85.0994666  15.4458534
  70.7297326  84.8384340  15.8875191  69.4380809  85.5968053  16.1054432
  26.0842061  43.1627655  78.3301640  26.0461926  44.0592146  77.9967451
  25.1685405  42.8902197  78.3893728  88.5482741  71.5688295  12.4621021
  89.1532756  71.5693541  11.7203438  88.4878684  72.4879296  12.7225601
  21.6048551  79.2992973  54.4320154  21.3064957  79.9700117  55.0463104
  20.9671593  78.5911798  54.5222425  33.7040281  41.0651064  84.5673656
  34.3200874  40.6219816  85.1507568  33.7886453  41.9923592  84.7893429
  92.5641299  77.8044803   4.8850357  92.8042794  76.8820603   4.9727833
  93.2876349  78.2801969   5.2930462 109.5658780  95.0161488  39.4491207
 109.2219830  94.7248347  40.2935707 110.4873801  94.7575791  39.4637024
  68.5576776   6.6318256  21.0414135  68.0780462   6.5522272  20.2168858
  69.3469575   7.1228105  20.8129322 112.5130814  42.2530842  30.4748750
 111.7310877  41.7013884  30.4561162 112.2597771  43.0097055  31.0036373
  70.0195932  47.9715824  90.2884007  70.1830816  47.0409012  90.4411697
  69.4304037  47.9906321  89.5342636  48.0532312   9.1475677  89.7142887
  48.3229446   8.2295167  89.7401619  47.9281187   9.3343061  88.7838459
   6.2628653  69.4642754   8.4609711   6.7905619  69.0857286   9.1641533
   6.3241007  70.4096479   8.5979092  36.8483329  43.7136221  74.3220949
  37.3934913  43.0248165  73.9418554  36.7978215  44.3831062  73.6398411
  62.7569628  21.6717029  91.7008877  63.5707283  21.7986870  91.2131405
  62.9862404  21.0499430  92.3915958  95.1792622  99.8237212   3.3749401
  95.0516749 100.2188380   4.2373955  94.2941237  99.6266682   3.0684483
  66.6784526  78.8790209  17.1872532  66.6822673  78.4184892  18.0263817
  66.2458087  79.7123392  17.3733532  58.9789581  40.6532335  80.7497501
  59.1770315  40.2066517  79.9266148  59.7763681  40.5596733  81.2709141
  62.0764160  14.9743736  82.4451256  62.5477123  14.8727655  83.2720375
  61.2676525  15.4269850  82.6844406  40.4444742  32.6691079  89.8228264
  41.2227345  32.1203732  89.7257137  40.6475306  33.4625721  89.3274403
  88.4487630  60.1681365  12.0717632  88.4202576  59.6781809  12.8935635
  87.7303172  60.7966657  12.1425926  71.2236787  80.6052382  11.2791550
  71.9039250  80.6411083  10.6066906  71.6763163  80.2891333  12.0610916
  51.7687702  38.2963896  81.4144039  51.7303991  37.9587007  82.3092365
  50.8827829  38.6139727  81.2400627   8.0597209 104.7833579  65.9774828
   7.9931544 104.8115102  65.0230169   7.8921651 103.8681627  66.2023735
  57.0911932  71.4670134  91.5089035  57.8058243  71.0841084  91.0000706
  57.3239279  71.2891436  92.4201775  60.8838081  19.2439318  64.3172264
  61.3855886  18.9665461  63.5507345  59.9691439  19.1618419  64.0472555
  44.7160482  32.1559262  74.7286654  43.8894176  31.8896246  75.1311541
  45.3881693  31.7117643  75.2455854  65.3476286  32.6421881  66.6311550
  65.5126858  33.1744790  67.4093962  65.2563334  33.2777309  65.9212399
 103.7832499  98.0812724   1.2641632 104.4105197  98.0237038   0.5434334
 103.5467769  99.0080149   1.3024246  22.0380592  35.0057602  74.8124266
  22.1046567  35.5761099  74.0465975  22.8973103  34.5887637  74.8759508
  75.4862070  27.1163273  87.8390789  75.8219528  27.7521110  88.4709644
  76.2688065  26.6918659  87.4875069  85.8084489  64.4079084   0.5593693
  86.4562035  64.2417295  -0.1254833  86.2637330  64.1998215   1.3752472
  46.5206575  22.4784946  76.6743946  46.4363098  21.9590306  75.8748484
  46.1018133  23.3128858  76.4632177  76.5534521 103.8869412  17.5034439
  76.2923027 104.8058636  17.4432861  76.4811183 103.5582287  16.6073715
  27.8135586  32.6898766  86.5156364  28.6499977  32.3839879  86.8663979
  27.6059508  32.0699430  85.8164787  35.2556539  66.0740662  76.7991447
  35.5063033  65.7755327  77.6733828  34.4642091  66.5933704  76.9411516
  22.0690799   4.7181389  80.9941578  22.7423024   4.2802307  81.5149689
  21.2768340   4.6586701  81.5280533  47.8100014  58.3031416  55.1524639
  47.0056772  58.3426952  54.6350336  48.4591103  57.9272890  54.5577955
 101.8558217  98.7675746  11.2696564 102.1649981  98.9168723  12.1631634
 101.8543721  97.8153021  11.1726963  37.0764732  27.0765972  68.4010124
  37.6346493  27.0306516  67.6247644  37.2149849  26.2402296  68.8454580
  60.7050396  60.5041523  20.0797474  60.3346349  60.9253235  19.3040859
  61.3700772  59.9086125  19.7343647  61.8347979  37.4509430  71.3762999
  62.7400827  37.1442008  71.4272785  61.4238071  36.8778467  70.7290936
  24.8578409  13.5701115   6.3949787  25.6247190  14.1287929   6.5214550
  24.7146848  13.5705072   5.4485428  52.4332571  15.9655619  82.5083637
  51.9480944  15.2506399  82.0963764  53.2794333  15.9698474  82.0609283
 108.7538911 101.9309361  22.3463642 108.7574960 101.1518700  22.9024899
 109.3164540 102.5550873  22.8048336  78.9063693 101.9802935   5.9240925
  78.6651612 101.9486506   6.8498623  78.2818747 101.3962777   5.4937756
 100.6448413 106.2905867  20.0492394 100.4550219 105.7038004  20.7812798
 101.0835887 105.7353098  19.4047272  98.3218671  44.5654227  35.8305752
  98.1326009  44.3042989  36.7318070  98.5214854  43.7446667  35.3803074
  75.4202104  91.1685760   6.0168183  74.7706509  91.3891156   5.3492367
  75.5483914  90.2245839   5.9236633  20.8206725  58.6399269  89.1819572
  21.3834095  58.4377956  89.9294281  20.0934935  58.0218458  89.2555618
  85.8076001  73.7881477  32.8942978  85.0540877  73.6344512  32.3243630
  85.4726363  74.3595917  33.5853016  88.2928086  88.2293470   4.1516316
  88.7753964  88.5050352   3.3723080  88.7508012  88.6511667   4.8786366
  35.2568102  39.0187907  79.4149876  35.0735807  39.2326283  80.3298283
  34.6507001  39.5656395  78.9151669  46.8077517  28.3830357  76.2996149
  45.8630657  28.2335210  76.3376427  47.1479177  27.6402378  75.8008480
  59.3956518   0.1089278  87.4104404  58.8473272   0.7029305  87.9230213
  60.2872276   0.4305074  87.5442600  69.1927005 100.4200871   8.2635224
  68.3152176 100.0560029   8.3805763  69.7810317  99.6801550   8.4138500
  94.1699982  94.5758326  12.6985180  93.4734012  95.0218613  13.1802284
  94.5617915  93.9820559  13.3389580  15.2249169  73.3478260  62.5043344
  16.0604095  73.2424021  62.0492887  15.1638746  72.5808477  63.0737686
  81.4862634  89.1448863  16.4977371  80.8688737  88.4134610  16.4890206
  82.3417235  88.7378771  16.3607514  25.2972412  36.5029764  60.3736973
  24.8216581  37.2981477  60.6140232  24.8124719  36.1502481  59.6274996
  45.9466124   9.7122753  91.7310238  46.5895319   9.2886013  91.1623478
  46.4525032  10.3567326  92.2259808   3.8692092  79.5189596  55.8660603
   3.3389281  80.3017712  56.0151863   4.7062682  79.8542929  55.5449438
  32.6834416  31.6754150  85.4079723  33.0511212  31.4674711  84.5490170
  31.9557858  32.2681856  85.2198982  48.2100010  61.7506695  90.0851250
  48.9983034  61.7056322  89.5440292  47.9686737  62.6769352  90.0801468
 109.4287921  71.1404462   1.3998902 109.9083949  71.0974021   0.5726254
 109.9324036  71.7519517   1.9371712  91.0748577  16.2342978  90.6351566
  90.6603432  16.6497028  91.3913631  91.0920429  16.9182312  89.9657059
   6.7822212  35.6712532  64.5016956   6.6476268  35.5386925  63.5633230
   6.7546362  34.7900486  64.8744535  52.6134933  64.0637429  10.7077133
  53.1470812  64.8258443  10.4825127  52.1913017  64.3023772  11.5329659
  66.2772989  37.3182034  85.0943947  66.6449499  37.9539633  84.4804859
  66.5197849  36.4665008  84.7310257 110.3565312  78.8686283  18.4785950
 110.5455352  78.4916384  17.6192963 109.5417739  79.3550189  18.3527958
  59.2705608  82.4443204  39.4027340  59.6013380  82.9687412  38.6734879
  58.9801765  81.6270907  38.9977085 104.0216781  91.6453178   1.5916645
 104.5596886  91.1803896   0.9508717 104.4849158  92.4696715   1.7402661
  19.4904339   3.2597336  90.4081917  19.9793494   2.4925223  90.1105595
  18.5728884   3.0320054  90.2582455  25.7351445 100.1047791  84.7895718
  24.8002814 100.2566773  84.6510315  26.1169576 100.9816307  84.8293686
  71.4497375   6.7091042  78.3981371  70.6759548   6.4941442  77.8772926
  71.5795135   7.6471114  78.2583809  67.1309614  55.3047037  89.7720623
  67.3352861  54.3833494  89.9320412  67.8765488  55.7820702  90.1360130
   3.3524254  75.3548574  65.6126165   3.2533190  76.0939837  66.2127018
   2.4823815  75.2377510  65.2311134  72.3605728  35.8000493  88.9439392
  72.8068447  35.6614161  88.1085682  72.6606274  36.6608667  89.2358208
 100.8716012  85.1766474  23.5538876 101.1226798  85.9797175  24.0102493
 101.6381217  84.9510129  23.0268490  23.3325958  26.7263889  67.9963827
  23.4551001  25.8440804  67.6460123  24.1299343  27.1949577  67.7495527
  83.7696266   6.4197999  79.7978306  82.8611088   6.7080224  79.7097301
  84.2480373   7.2095311  80.0501728  55.3323412   6.4717275  72.7405930
  56.1490107   6.9700807  72.7711391  54.8213005   6.8915647  72.0486355
  44.2928076  45.7196808  85.5428028  44.8211527  44.9380302  85.7043552
  44.2196131  46.1405516  86.3993835  63.7484694  30.7786965  56.6820049
  64.4261837  30.2546883  57.1090317  62.9572868  30.6098914  57.1936321
  89.7405482  55.1113461  12.4134838  90.1376582  55.9815208  12.3769962
  90.0640202  54.6673925  11.6295826  44.4291925  17.4724913  36.4200974
  45.1772165  17.6927352  36.9752407  44.3131304  16.5296435  36.5375710
  25.4652405  28.7588835  70.8747530  26.3453984  28.4384847  70.6775284
  25.5599332  29.7105932  70.9136915 108.7764121  88.9283021  11.2777435
 109.2299510  88.3912237  11.9274246 108.6743928  89.7808297  11.7008507
  64.0791750  36.6479826  31.1214304  64.4433546  35.7845235  31.3164711
  63.2924080  36.7041564  31.6637206  56.1189747  24.4693732  90.3547764
  55.9955931  25.1756644  89.7206116  56.8671846  24.7490549  90.8822155
  62.2703005  86.8430526  21.8634617  62.3172499  87.2282298  22.7384865
  61.3342810  86.8110020  21.6657936  39.3556404  41.7646837  77.4452639
  39.0520215  42.6481438  77.2365952  38.7026596  41.4253569  78.0573988
  22.3472694   0.6947119   3.3068573  22.9918865   0.2942688   2.7234566
  21.6514924   0.9973604   2.7233040  44.3779802  44.1329575  71.3966417
  43.6316919  44.5645714  71.8125772  45.0520706  44.8110247  71.3512993
 108.4485627  87.9232628  14.6951782 109.1602183  87.6135452  14.1349518
 107.6507665  87.6775677  14.2268002  68.5617877  95.6467612  31.5139782
  67.9991198  95.4470189  30.7658207  67.9877687  95.5606492  32.2751057
 104.8816825  86.3364441   5.9892952 104.4892073  86.7206414   6.7732441
 104.9701978  85.4062588   6.1970246  57.5924540  27.7754712  69.7197151
  57.7780962  27.7301574  70.6576490  58.0582190  27.0269227  69.3469334
  36.6503382  35.2830601  73.0959463  36.2351441  36.0960579  73.3838320
  37.1233153  35.5246067  72.2995901  97.8758527  74.5979793   6.1638367
  97.4858428  74.5984371   5.2896893  97.4488116  75.3249581   6.6170132
  20.8605483   1.6037113   1.3218796  21.3195089   1.5087063   0.4872811
  20.5462459   2.5078375   1.3208210  29.3255067  43.1241941  68.0928946
  29.1224694  43.8822508  68.6409378  28.5131407  42.6183176  68.0733347
  53.6033869  33.7535906  69.7909164  53.9838791  33.2512355  69.0704298
  53.4046745  34.6081996  69.4083071  54.9731064  26.5046763  44.7955704
  54.1637230  26.2826848  44.3352985  55.5358076  26.8846774  44.1208887
   2.8604319  92.8107007   1.8569100   2.7351382  93.7391598   2.0531189
   3.2217028  92.4421651   2.6630699  64.1557693  25.3720832  67.6723289
  63.7611294  24.5054507  67.7694893  63.8402748  25.6852531  66.8246174
  35.2670240  41.4658451  74.9643612  35.6123042  42.3537683  74.8716211
  34.5441270  41.4233685  74.3383884  72.1095848  36.0538077  78.9360666
  72.0034790  35.4132509  78.2327461  71.2456989  36.4561129  79.0259647
  58.9209938   9.5385456  65.4690218  58.6980915  10.4638910  65.3676224
  58.5417509   9.1150463  64.6989202  16.9958484   1.0802019  53.6255407
  16.6596437   0.3621548  54.1618347  16.7770195   0.8312661  52.7275562
  94.0820981 100.4290373   8.8489544  93.8686848 100.0771792   7.9847347
  94.6600772 101.1706479   8.6695778  37.3079228  61.2476969  58.6004448
  36.7385697  61.9424343  58.9312124  37.7515221  61.6394281  57.8481150
  41.7914394   3.5183842   3.6215031  41.9868568   4.0605623   4.3857586
  41.4321473   2.7099258   3.9869320  89.2172337  82.7026660  23.6921799
  90.0005198  82.8102405  23.1526291  88.7053395  82.0318992  23.2402146
  96.9207954  43.8238716  83.6030960  96.2598038  44.4958496  83.7697411
  97.4576473  43.8142586  84.3955135  65.7022810  22.4667001  86.5601730
  66.0641909  22.6071882  87.4351120  64.9161911  21.9408488  86.7077351
  67.1890259  47.0896149  81.5379715  67.3852062  46.4972830  80.8121014
  66.6795635  47.7955484  81.1400604  54.4031000  67.3858213  76.7349339
  54.9633741  67.6203680  75.9951258  53.6409187  66.9671726  76.3348818
   5.6609633  90.7781155  13.3723652   4.9532034  90.7375295  12.7291977
   6.4400008  90.9900768  12.8581726  25.1304153  16.6045267  14.1485035
  25.4975656  16.4081032  15.0103867  25.5958417  16.0193378  13.5508740
  57.4084330  49.0066767  77.8950882  57.4844837  49.2877865  76.9832611
  57.4355268  49.8197699  78.3994484  65.8804274  88.8640022  89.0589905
  66.3500357  88.0320930  88.9987850  66.3473368  89.4465160  88.4599018
  64.1643906  25.9990191  91.5214252  63.8148642  26.5709782  90.8381081
  63.4051991  25.7794142  92.0614529  61.0190058  35.4374766  85.7950115
  61.3090754  35.8550763  84.9840260  60.5153179  34.6766400  85.5057812
  17.2208178  53.8411236  59.4377851  16.9052041  54.5062590  60.0495195
  16.8709469  53.0176258  59.7778893  55.7647705  84.7940636  88.0456066
  56.0852242  83.9067364  88.2074165  55.0314522  84.6774483  87.4415588
 107.5952340 103.3087046   2.5616848 106.8910409 103.2858450   3.2096207
 107.7365876 102.3910172   2.3290932  44.8988199  32.3173332  86.1511803
  45.6667566  32.2825432  85.5808353  45.2420473  32.1367621  87.0262909
  96.6992331  85.2013118  11.4736092  95.8422137  85.4338510  11.1162960
  96.6123677  84.2818601  11.7251980  96.4074851  92.5675566  24.9432289
  96.4909268  93.5026486  24.7564900  96.4176465  92.1495302  24.0821945
  27.5342250  41.1257887  91.9687843  26.6126013  41.2107372  91.7245960
  27.9560089  40.7634115  91.1896706  87.7255107  66.3892324  25.7951843
  88.3220483  66.7817433  26.4326107  87.8744222  66.8856866  24.9904549
  72.4957371  34.4190693  76.7086411  71.7301893  34.4085741  76.1341381
  73.1611061  34.8957515  76.2123632  15.0916696  47.5579977  89.2551804
  14.7250986  47.8601408  88.4241772  16.0349035  47.5129604  89.0986061
  20.5961802 100.1911433   6.3040840  21.2190249  99.5966704   6.7223084
  20.7946589 100.1274998   5.3698551  64.4393135 105.4652197   9.4329178
  63.7092901 105.5958922  10.0380909  64.7354771 106.3502533   9.2202484
  42.7649212  34.3527079  81.2741280  42.0317173  34.8499393  81.6366196
  42.4192142  33.4679675  81.1560154  51.2013009  10.7464582  15.3562271
  51.0195020   9.8769743  14.9996102  50.4526094  10.9345419  15.9221947
  16.1717509  89.4111550  76.4625311  16.1346101  88.5936189  76.9590044
  17.0109605  89.8016012  76.7064762  91.8023872  41.4411640  79.0813971
  91.1029148  40.9236050  78.6825323  91.7249966  42.3034239  78.6730480
   6.1808684  96.4993889  22.6775276   6.8166163  96.4954979  21.9619667
   5.3348925  96.6178925  22.2456562  10.1724389   8.3355457  19.0772831
   9.3955425   8.8273889  18.8112843  10.1145747   8.2942516  20.0318348
  60.3914357  62.3266937   1.1621487  60.4663325  61.3728608   1.1334335
  60.5767108  62.5541700   2.0732796  10.3509047  89.0990431   7.4148571
  10.8427718  88.3127649   7.1780693  10.3556349  89.6328409   6.6203320
  13.3915332  30.1413137  19.6433556  12.8632978  30.3597624  18.8755810
  13.6088613  30.9880239  20.0333416  53.5979366  35.0820756  76.3368654
  52.9278755  35.5187583  76.8627501  53.1561232  34.3132567  75.9763813
  53.5067225  42.0832062  74.2771196  53.6575842  41.2298012  74.6835375
  52.8398561  41.9167042  73.6109352   9.2959499  98.4064013  74.3247938
   9.0881490  98.8598103  75.1417828   8.7958335  98.8752759  73.6567593
  66.5643717  80.2645023  31.8942845  67.4458266  80.6196077  32.0090401
  66.0681010  80.6111295  32.6357662  32.8094649  35.2390671  79.2396736
  32.8704405  35.3057408  78.2867479  31.9644189  34.8178005  79.3967152
  54.4000959  35.8375525  91.1278152  54.9515533  36.4950132  90.7037067
  53.7184095  35.6452799  90.4839516  20.0324392  52.6356649  52.2770548
  19.7209489  52.8215599  53.1628609  19.2739177  52.2596502  51.8304157
  98.5765649 102.8811152   1.3603604  97.6483250 102.6669104   1.2669480
  99.0350772 102.1120436   1.0219395  83.3824348  39.1773653  87.8846169
  83.5498238  38.5548687  87.1770096  82.9545498  38.6573482  88.5648632
  41.6553354   9.0960544  38.1690931  40.9373617   9.6330702  38.5043001
  42.0826149   9.6488148  37.5147843  61.2191343  37.2819853  83.6048031
  61.5594101  37.9870033  83.0539894  60.5434036  36.8651938  83.0701065
  61.0574675  64.1109037  88.2527256  61.0029030  63.4872627  88.9768314
  61.4311075  63.6066580  87.5299740  30.3660488  31.9578886  84.0813828
  30.0002575  31.3850188  83.4074020  29.8482203  32.7606058  84.0202904
  51.2433958  39.5126081  90.0495720  51.7910671  40.2036810  89.6771336
  51.6382980  39.3270469  90.9015369 112.6329137  93.0880888  11.9522774
 111.8806983  92.8168280  12.4784100 112.2522260  93.3876259  11.1266911
  33.7010622  52.2091675  90.2412701  33.0262470  51.5389347  90.3491592
  34.5268321  51.7273617  90.2881813   6.0819152   3.5064537   0.4990017
   6.9906905   3.8070089   0.5044949   6.0736802   2.7799303  -0.1241577
  57.2141504  54.2078257  87.3373699  56.3334036  54.3437052  87.6867294
  57.6853752  55.0116777  87.5564480  56.7474508  72.2573614  66.9511747
  56.7424822  71.9522047  67.8584194  57.6717281  72.4106359  66.7550945
  13.0687239  98.0543835  20.4277146  13.2843401  98.1527026  19.5003235
  12.9660799  97.1107228  20.5510151  56.9370127  51.3368225  79.2531395
  57.5381708  51.5912771  79.9532032  56.8136835  52.1360683  78.7410498
  84.3687011  94.7686942   9.4867146  83.4814835  94.5048220   9.7305500
  84.2736531  95.1509507   8.6143219  66.7654991  34.0266204  81.1820316
  67.0518970  34.7225285  80.5904961  65.8600235  34.2516041  81.3958931
  18.9160466  59.5703697  77.2532368  19.4375205  59.4753361  76.4561987
  19.5493889  59.8225403  77.9251862  82.8899574   7.9760259  72.5438070
  83.0074310   7.0304948  72.6354790  82.8767109   8.3040184  73.4429646
  66.7227554  30.5824637  76.2759352  67.5793266  30.6670094  75.8571577
  66.8634462  29.9542785  76.9843292 112.4402047  85.2191789  17.7512085
 111.6046525  84.8792965  18.0714619 112.7036763  84.6024663  17.0682156
  60.5527735  31.5777111  69.9206591  59.7183228  31.7770624  69.4961739
  61.0497904  31.0976601  69.2582703  75.4066229  21.1091709  70.9485340
  74.5491314  21.3935304  70.6321907  75.7591581  20.5745602  70.2370977
  45.9613039 103.2978756   2.5207626  46.7042353 102.9901488   3.0399906
  45.5799487 104.0035326   3.0430996   7.9812291   5.7991297  29.0406811
   8.8993791   5.5324871  28.9945137   7.6467183   5.3706676  29.8285591
  35.1907182  53.6780930  69.3709612  34.5123172  54.3057060  69.1217518
  35.0169516  52.9093075  68.8278151  47.8750181  54.2262411  82.1542835
  47.7016211  53.3658648  81.7722988  48.7993336  54.1967678  82.4012756
  31.8316317  15.5287004  77.3992682  31.3165855  15.0844073  78.0727386
  31.1793566  15.9125328  76.8132305  95.9782554 102.4825795  17.2283470
  95.3374101 103.0463011  16.7950356  96.2119437 102.9555066  18.0270779
  65.3983688  84.2186928  88.3006668  66.1539173  84.7920990  88.1718540
  64.7633410  84.5084953  87.6456928  35.3053403  36.9066811  83.6090469
  35.6225085  36.0222793  83.4260941  35.0267744  36.8766713  84.5243263
  43.5308889   9.6620686  26.7645085  43.1727556  10.5482943  26.7137158
  42.7820829   9.1142685  26.9999516 110.9015561  96.5920575   5.8376324
 111.2175608  95.9217961   6.4435398 111.6957951  96.9502051   5.4412090
  67.9840994  10.5182695  88.6056900  68.3956766  10.6749690  89.4555664
  67.2368145  11.1161530  88.5875893  57.2156048  30.8633733  74.8399019
  57.1989059  30.0424337  74.3479538  57.5165176  30.6130648  75.7134199
 109.1888381  53.8112243   4.8929131 108.7439538  54.5380291   5.3288757
 110.0742341  53.8196214   5.2565491  37.8600454  57.5815821  73.5364962
  38.1223035  58.4278727  73.8987780  37.3069477  57.8028202  72.7872562
  18.6431982  97.4734290   8.4207928  19.0231707  98.1543143   8.9759934
  18.2527831  97.9512818   7.6890385  73.6622573  47.8019990   8.1056130
  73.6126185  48.2269157   7.2493279  72.9094315  48.1449194   8.5871613
 107.7816249 104.9965079  32.3241341 107.7634097 105.7824357  31.7780506
 106.8888903 104.9177392  32.6603710  82.2468186  96.8730147  12.4123776
  82.7649117  96.1210568  12.6993858  81.3387872  96.5774376  12.4783146
 104.2088248  21.8383486   4.7698319 103.6226751  21.3531572   5.3505528
 104.8719217  21.1988003   4.5099938 108.0554010   2.3848087  28.0198967
 107.7933289   3.2659990  28.2864582 107.5134112   1.8024332  28.5521710
  48.3864354  89.5946336  81.0251236  48.5162496  90.5336106  81.1581707
  47.4956559  89.4298232  81.3342953  95.2144146  34.1399741  77.6543236
  94.4655037  34.4527149  78.1618261  95.9246445  34.7404742  77.8806067
  56.9408178  24.3800402  82.1877575  56.1073494  24.7896171  81.9557858
  57.4760485  24.4624305  81.3984776  50.6673098  33.1218457  60.4682350
  50.5223083  33.6290622  59.6695280  50.5575562  33.7552571  61.1774445
  29.4656280   2.0015985  20.5903256  29.2515710   2.9077846  20.8122170
  30.3201631   2.0552427  20.1623928  76.0286331  26.8279600  84.4895172
  75.3362942  26.5259767  85.0774860  75.7553673  27.7077627  84.2296982
  67.1268011  81.7555435  11.0962593  67.7841998  82.1256049  11.6854202
  66.8753649  80.9284217  11.5072167 106.5642834  47.5225544  72.5461102
 106.8790913  46.8730307  71.9174194 106.5198517  48.3377218  72.0463467
  37.4585202   1.4884502   9.9731171  37.9502157   0.7260687   9.6677601
  36.9048217   1.7295200   9.2304718  26.7915872  30.0550348   3.1727326
  26.9355777  31.0009844   3.1988728  26.5562919  29.8736364   2.2628128
  67.6100803  76.2372119  20.5496132  68.3640719  76.6003592  20.0850117
  67.9231191  76.0997803  21.4436829 111.8838788 105.3015215  11.1199295
 112.8407479 105.2784998  11.1302101 111.6283465 104.4652922  10.7304966
 112.4870444  73.2731600  19.3180191 112.3905707  72.3264010  19.2151844
 112.3088027  73.6280663  18.4470951  22.9105476   7.1503717   4.5452320
  23.6148170   7.2654612   5.1831829  22.6095775   8.0394680   4.3577206
  26.5474223  94.0582407  67.5809431  25.9254312  93.4040857  67.8994465
  26.0369300  94.6019686  66.9809532  73.3229876   6.8398982  48.3446932
  72.9137230   7.6884699  48.1754065  73.2023573   6.6988778  49.2837334
  65.7159090  17.9772186  67.9987383  65.8037853  17.5124907  68.8309288
  64.8215723  18.3182526  68.0081367  30.5343058  84.5289023  13.5991680
  30.3610518  83.7709720  14.1575157  30.8261778  84.1528852  12.7687084
  98.6481334  80.9423120   4.1673195  98.3522988  80.8438904   3.2623207
  98.9707518  81.8421156   4.2173302  89.6257544  81.4387233  30.3098309
  90.3490926  81.5225060  29.6885502  90.0033093  80.9721835  31.0555088
  52.3505211  46.8525648  91.0173225  52.6096487  46.4273453  91.8348026
  51.5638447  47.3484612  91.2441826  82.8420353  51.9997025  64.7331190
  82.0225143  51.6178513  65.0474548  82.9259872  52.8200293  65.2191687
  79.4808722  54.9576283  86.6929626  79.6848297  55.7050562  86.1308384
  80.2493858  54.8646116  87.2559643  83.3445741  78.4136350  52.1108544
  84.1823436  78.7981374  51.8529236  83.2828761  78.5824854  53.0510246
  69.6470928  39.9161196  81.7283535  70.3269815  40.2531242  82.3118019
  70.1260519  39.5843935  80.9688854  61.6928196  39.8900414  72.8722954
  61.6956282  39.0459299  72.4209642  62.1649408  40.4783010  72.2829866
  74.0239096   3.5321787  70.5861473  73.5552359   3.4246963  69.7584820
  73.6353016   4.3123105  70.9818840  29.1487220   0.2076466   6.9106686
  29.4174770   1.0716040   7.2230541  28.8340572  -0.2431505   7.6942455
  76.8086195  20.9439874  62.3516464  76.5568304  20.2547860  62.9663324
  77.1182775  21.6591668  62.9074001  61.7723465   9.1651404  82.8697491
  60.9303284   9.4845641  83.1940937  61.6373968   8.2269084  82.7365494
   0.4236367 102.1969826  15.0216782   0.0164702 101.3404686  14.8919594
   1.2414601 102.1508820  14.5264256  69.5000387  95.9397395  10.1201260
  69.1450644  95.0574572  10.0114834  70.0490380  95.8824093  10.9021389
 105.9006240  12.9333860  19.0659058 106.1993100  12.1694548  18.5725224
 106.0946204  12.7198727  19.9786007  81.1036396  46.5976906  84.1833115
  80.5104542  45.8464670  84.1778946  81.8833256  46.2839031  84.6414185
  60.6805658  27.4555898  67.6306581  61.2274933  27.6615524  68.3887339
  61.2978649  27.1504688  66.9657660  71.4105797  17.4257910  56.8917036
  71.9809771  18.0730498  56.4770555  71.6851616  17.4170172  57.8086329
  34.9597502  52.5807047  63.7531614  34.1124249  52.2417450  64.0419197
  35.2500248  51.9611549  63.0837345  45.6759977  53.1206131  86.5824795
  45.7400799  52.1806335  86.4134407  46.1771393  53.2539940  87.3870277
  96.4261342  81.7073901  16.8037140  95.7953502  82.2856314  16.3747894
  97.1898557  81.7160447  16.2267506  78.7513114 100.0517876   0.6561768
  79.2091132  99.3410571   1.1050808  78.2192183  99.6125681  -0.0072849
  38.6367658  12.8298504  13.8988506  39.1415885  12.3650009  13.2315457
  39.2772725  13.0455763  14.5766842  61.6210032  15.0455320  36.7343736
  62.0579433  14.4747806  36.1022663  61.3065767  14.4516027  37.4160004
  57.7108717  19.0531540  75.6287527  58.1705523  18.2246661  75.7649088
  56.9615936  19.0118027  76.2229776  57.6383448  24.6789193  85.0648689
  57.6215649  24.0109348  85.7502556  56.9271660  24.4329977  84.4732857
  57.0437193  19.3177235  87.3960114  56.2718105  19.8063350  87.1102619
  57.1955919  18.6803603  86.6982079 107.5511981 100.6528647   9.6127712
 107.1714927  99.8016531   9.8307049 108.2777978 100.4474576   9.0244782
  78.3202219  22.5705338  78.0301046  78.8644552  23.2149458  77.5775766
  77.9998732  23.0302787  78.8061476  92.3835754   1.8600208  58.6034775
  92.4367714   1.2498794  59.3390942  93.2391930   2.2887841  58.5855770
  42.5047016  21.0546994  54.1596460  43.2486629  20.4866719  54.3598890
  41.8928337  20.9114623  54.8816824  77.7148819  46.8158913  85.5518341
  77.9984999  46.8288708  86.4659595  78.0921221  46.0116005  85.1954174
  90.6884766  52.1819973  55.3710985  91.6152763  52.2967100  55.5811214
  90.6247330  52.4006081  54.4413757  73.1794694  10.8553631  38.4252941
  73.6258558  10.0134594  38.5157215  73.8051561  11.4957792  38.7638390
  90.4406643  36.8926382  90.0287056  90.8803082  36.3035917  89.4155407
  90.9254360  36.7910266  90.8477974  42.1387008  18.5200817  11.1644184
  41.2122873  18.3736593  10.9732258  42.2283319  19.4724113  11.1998951
  35.8094599 104.4474776  28.2795918  35.7176974 105.1325257  27.6173794
  36.4231493 104.8116810  28.9175331  76.0591651  63.6408074   8.5121071
  75.7705332  63.7854059   7.6109898  76.0198928  64.5067687   8.9180576
  44.1277459  19.4890434   5.3455937  43.8101629  19.6623499   4.4594013
  44.6272805  18.6763794   5.2663529  51.6077089  73.8496065  88.2920074
  50.8014059  73.8565636  87.7762032  52.2496605  74.2949152  87.7389812
  35.0616267   7.8723413   8.5172760  35.3873542   8.7708504   8.4642136
  34.1548208   7.9632074   8.8099873  54.5784712  69.3877792  69.5383692
  54.4371557  69.4018555  68.5917616  53.7011909  69.2962265  69.9101639
 100.2579642  95.3225930   5.1217854  99.8454524  95.0752051   4.2942154
  99.9202777  96.1992962   5.3050625  56.6420937  59.3866491  82.6120472
  56.4318419  60.0608349  81.9659042  55.9660053  58.7199211  82.4911880
  33.1283668  29.4118959   4.9073422  33.6277440  29.7171766   4.1499340
  33.7349227  29.4944174   5.6432163  78.9064264  76.2106085  78.0852652
  79.4603062  76.9361544  78.3734179  79.3344069  75.8818769  77.2946978
  78.7781954  62.9083347  84.3630695  78.1625032  63.0959082  85.0715733
  78.5906267  62.0027208  84.1162491   1.4013770   2.5936634  12.9063522
   0.7704595   2.0607502  12.4224293   1.7504385   3.2020695  12.2550213
  49.9029112  74.3251562  85.0639343  49.0702152  74.4770956  85.5108833
  49.6859932  73.7242222  84.3511486  60.6533146   8.9640385  67.4225330
  59.9526310   9.1469908  66.7965937  60.5978823   8.0207080  67.5751352
  41.8570712 105.0639994   3.7842095  41.3795950 104.4739850   4.3674099
  42.3691084 105.6193335   4.3721306  89.5853570   7.4068100   4.2522537
  89.7929719   6.8860418   3.4764111  89.7895578   8.3068306   3.9982807
  68.4782219  81.5446854  76.0860014  68.3201933  81.5182400  75.1423073
  69.3441439  81.9432831  76.1727667  93.9692307  57.0012569  68.0634689
  94.0420246  56.3542366  68.7651062  93.3981895  56.5886402  67.4154711
  39.8041681   7.0961315  41.5728962  39.9442962   8.0089266  41.8247044
  40.6661132   6.6888792  41.6590607 106.4514542  78.5740383  25.5961811
 105.8768416  77.8410132  25.8169186 106.8488789  78.3240731  24.7620403
   4.5000318   4.7689611  11.7973149   4.7773221   3.9155895  11.4639961
   5.2697519   5.1097519  12.2529709  76.9186736 103.3910544  26.0843861
  76.2274505 102.7378161  25.9761154  77.1305776 103.6656506  25.1922333
  50.3954220 106.2223339  89.5996094  51.3251686 106.1125469  89.7989845
  50.1539135 105.4211903  89.1347599  41.4151907  82.3180676  89.7244167
  40.9169960  82.0729733  90.5041313  42.2472858  81.8539143  89.8161411
  92.7917290  78.0374002  61.5115690  91.9504738  77.8189039  61.1105919
  92.5844860  78.1938696  62.4328709  91.3191986  59.1984272  87.5910473
  91.6398621  59.7080612  86.8469524  90.5360889  59.6658182  87.8817940
 110.9262038 102.3694308   8.8722527 111.4379025 102.0401223   9.6111309
 110.0484658 102.5037510   9.2296993 103.1160594 102.9957564  15.0724232
 103.0208588 103.9424212  15.1772701 102.4739695 102.6221497  15.6760513
   4.0056469  98.1507905  24.4531738   3.7540390  97.2410853  24.2939484
   4.9603560  98.1508238  24.3842137  61.7748979  22.3352653  63.1794178
  61.2660173  22.8943331  62.5922978  61.8290571  21.4954740  62.7232945
  64.6054363  73.3764935  71.9222403  64.1211843  74.1842508  71.7511892
  65.4282618  73.6689568  72.3142195  54.0948963  53.0615568  87.5601101
  54.4313383  52.5133038  86.8512630  53.7401342  53.8330984  87.1184158
  30.0825027  12.1286852   7.7021515  30.6188396  12.0219881   6.9165337
  29.9576524  11.2379820   8.0297005  76.7176914  72.6178646  84.3658924
  77.6227713  72.3184395  84.2798519  76.7422867  73.2519436  85.0825310
   8.2864573  93.7861855   2.2158158   8.9114096  93.6716158   2.9317295
   8.7876990  93.5843737   1.4257157  98.5547256  52.4624014  67.9628229
  98.1593609  52.9992723  67.2760248  99.3478107  52.9372692  68.2112932
  37.5478748   9.5575363  44.4494259  38.4024242   9.7265655  44.0526783
  37.6467088   9.8374683  45.3594219  39.6195796  39.2725164  35.7975590
  40.3816512  39.7580130  36.1134159  39.9893573  38.5161001  35.3422272
  68.7553453  81.8245792  80.9293461  69.0341997  82.5457954  80.3651524
  69.3282223  81.8833256  81.6939354  97.6051999  92.5819047  16.3144886
  97.9824639  92.9156573  17.1284401  97.6291371  91.6299922  16.4120495
  70.9005785  85.0094032  83.5228729  70.7717037  85.7948208  82.9911423
  71.1782837  85.3411293  84.3767262  26.8766117  32.6914668  90.8643055
  27.2175431  33.5507035  91.1127186  27.5974369  32.0872617  91.0420036
  83.9482021  75.6980085  80.8432388  83.7394619  74.9315691  80.3091621
  83.1558418  75.8550644  81.3567924  75.0188732  40.5544615  91.0006523
  75.3923750  39.9391985  91.6316700  74.9273586  41.3725281  91.4891434
 106.3974954  75.2710564  22.9323780 106.6332723  76.1935742  22.8344071
 105.4613210  75.2408607  22.7351391 103.5936976  89.6187527   3.3409512
 103.9205409  90.4479702   2.9919445 102.7303935  89.5141966   2.9409325
  88.3956576 105.4591591  29.1233074  88.1787492 104.9158843  29.8809635
  87.6150370 105.9945567  28.9811337  50.8019498  29.0346796   5.8631813
  50.6027749  28.1015856   5.9400475  50.9289697  29.1759760   4.9250233
  81.9396210  46.1754799  88.8533115  81.1649609  46.4015245  88.3384991
  81.7960072  46.5978527  89.7001934  68.1585458   4.3431885  16.7706978
  67.4419740   4.9651319  16.8969643  67.8222421   3.7173159  16.1292851
  43.4556389  84.9663353  64.8669100  43.8023901  84.4215870  65.5734873
  42.7052307  85.4149723  65.2565861  31.2278368  92.6176841   2.4614441
  30.4488661  92.0679147   2.5462258  31.8956950  92.1682746   2.9793465
  59.9861860  72.3845387  82.2014618  60.1444864  71.7333364  81.5180016
  59.1312838  72.1499014  82.5624561  40.6025604   9.4058496  15.6915104
  39.9578956   8.7748463  15.3714001  41.3819698   8.8807327  15.8731949
  57.8286171  71.1524200  83.1816101  56.9450092  71.5059614  83.0792904
  57.9496288  71.0804081  84.1283989  69.9818948  21.7174179  14.3862259
  70.2377084  20.9196836  13.9231789  70.7339719  22.3017103  14.2902100
  52.9980329  17.2684986   4.6194565  53.3207753  18.0112440   4.1091644
  52.2452405  17.6156933   5.0979721  86.5623760  41.4121103  70.2350521
  86.8455029  41.2327623  69.3384457  85.6177139  41.2581587  70.2232409
  42.1252778  11.9264490   0.9501850  42.4644712  11.3182003   1.6068566
  41.2210325  12.0890600   1.2187683  67.2165632  39.0370893  83.2318115
  68.0807590  39.4483256  83.2149124  66.6027069  39.7708702  83.2631111
  19.4636824  92.2163494  10.9793389  19.8202803  92.8879650  11.5607178
  18.5373785  92.1631367  11.2146389  95.6544399  81.2790012  81.8479252
  96.3529301  80.6555653  81.6487694  94.8460388  80.7938099  81.6826725
  68.7064648  32.3351169  74.8649073  69.1159248  31.6849375  74.2940807
  69.1040277  33.1661892  74.6051073  55.7784367  66.1664343  79.1392803
  55.4004240  66.2947607  78.2692957  55.9849739  67.0502138  79.4434261
  82.9066039   2.7983856  76.4063740  82.4954367   2.4666786  77.2045851
  83.6269475   2.1909904  76.2378025  73.6811784  33.6020834  16.6714680
  73.0025247  34.2189581  16.9455826  73.4953931  32.8052790  17.1682655
  63.4025860  24.9665809  83.1090260  63.0808163  25.3113079  82.2760391
  62.6500893  24.5109653  83.4863758  61.9371796  43.6351347  90.6856155
  62.3924446  43.5482311  91.5231133  61.0081196  43.6240101  90.9157467
  39.4056419   8.4323961   9.5607865  39.2596486   9.2817766   9.9772942
  39.2966512   8.6025507   8.6251557  92.4966049  67.4276209  90.4852390
  92.3715115  66.5886259  90.0417614  91.7433643  67.5035763  91.0709763
  46.0941461  32.5362188   2.9103577  45.5757955  31.7390329   3.0201161
  45.4472116  33.2212049   2.7415383   3.6271814  26.5636618   6.6529762
   4.3157676  27.2103197   6.8075955   3.9598754  26.0268576   5.9336769
  32.6668695   5.4354174   7.3759472  31.9815210   5.1250202   7.9677117
  33.0285123   6.2069494   7.8120529  80.9073925  59.0908480  75.7809019
  81.3858700  59.6120644  75.1362133  81.5166569  58.9975023  76.5132380
  60.8449745  38.4951735  86.0108185  61.4991045  37.8481507  86.2748337
  60.7647276  38.3819270  85.0637341  22.7939513  99.4667084   1.5960037
  23.1161215  99.7461398   0.7390606  22.8977015  98.5151560   1.5922558
  61.1058664  54.1530943  88.4069920  60.4063654  53.4997559  88.4159946
  61.1760855  54.4413662  89.3170452  34.7862172  53.8217545  91.9876099
  35.6755686  53.9536953  91.6591644  34.3250299  53.3950996  91.2654591
  67.3641825  74.6882248  72.1229506  67.1203327  75.4495573  71.5965128
  68.1304216  74.3252993  71.6786575  51.1627150  62.3106861  90.8693600
  51.4331913  61.5515280  91.3858414  51.9808006  62.6720667  90.5282211
  98.5533905  51.2469244  77.4091768  98.8789272  50.3729486  77.6246452
  98.6589622  51.7479515  78.2179165   7.6613047 103.2906611   2.2802269
   7.5402167 102.4150116   2.6473915   6.8082907 103.7129481   2.3816216
   5.3109839  97.1964486  16.1960518   4.5719912  97.7926238  16.0747921
   5.9504130  97.7057869  16.6939938  31.2989807  90.6822205  81.8812466
  30.6856751  90.0930119  81.4420128  32.1235251  90.5647373  81.4094925
  61.4227772  62.1688938  90.3597355  60.7793236  62.1126938  91.0661697
  62.1744490  61.6703749  90.6802082  62.8270531  60.0444984  91.8803215
  63.5461998  60.6675911  91.7763042  62.5349140  60.1645851  92.7839088
  79.2949295  67.1131039  73.2145500  78.8215494  66.8990660  74.0184927
  80.0653458  67.5971317  73.5118818  33.5699466  21.3364345   2.9882347
  32.6647857  21.6377336   2.9099381  33.7740424  21.4304621   3.9186871
  60.8699226  69.6996880  65.4516649  60.6431341  69.8375082  64.5319891
  61.8227434  69.7869444  65.4790640  87.5435352  41.5270138  75.0890446
  87.4829006  41.8846893  75.9748316  88.2754898  41.9976187  74.6902943
 103.8138676  91.1933239  19.0093720 102.9873515  91.0356171  18.5530579
 103.9576245  90.4001362  19.5255387  88.0436134  78.9055443  79.4505501
  88.1926727  79.0158558  78.5114861  87.1751022  78.5075712  79.5100737
 111.7175674  76.0273266  81.2174988 112.6268291  75.7333040  81.1624908
 111.6075134  76.6076565  80.4642773  48.8631013  13.3663351  15.4254162
  48.5794595  13.2391245  14.5201027  48.9572862  12.4797470  15.7737171
  79.8665380  55.4252529  76.8200731  80.6411552  55.9426832  76.5999269
  80.2170944  54.6009922  77.1576262  39.7020793  24.5425725  79.6159601
  39.7043562  23.8769746  80.3038597  38.9724469  25.1190782  79.8429108
  32.1791842  68.8909347  15.1247036  32.4308684  69.3009241  15.9522354
  31.2375548  68.7407322  15.2084648  85.2115917  58.4044266  83.5128880
  84.4469357  58.0257511  83.9466381  85.4037666  59.1965771  84.0146923
   1.4275219  18.4683800  82.3880672   1.9454815  18.8412619  83.1014442
   0.7763054  19.1407967  82.1880531   6.6299250  93.1664045   4.5030605
   6.4966395  93.9425356   3.9589226   7.2183230  92.6124294   3.9900982
  57.1288729  33.0984569  90.3193665  57.4231863  32.1910167  90.3978825
  56.2116241  33.0772185  90.5922031 112.1744061  82.7092457  68.6817789
 111.8851089  82.3773003  67.8318691 113.0060291  82.2633934  68.8425827
  13.6059573  85.6724913   9.6313870  13.3189013  84.9428566  10.1804459
  13.8243201  85.2687247   8.7914383 107.4979401  41.6851091  59.5379114
 106.6359997  41.6568375  59.1226053 108.0023575  42.2966385  59.0014172
  88.7586308  82.8402455   6.6139710  89.6910382  82.6597126   6.7333519
  88.7167455  83.7812598   6.4437592 110.5828906  98.2619174  39.1510880
 109.8571158  98.8714297  39.0170014 110.2329064  97.6002915  39.7477448
   7.1724609  19.8099691   2.4673855   6.4809707  20.4105074   2.1891319
   7.0640996  19.0429241   1.9051277  28.2331470   7.8058655  10.7102215
  28.2528499   7.8577978  11.6658032  27.3085168   7.9062397  10.4839050
  90.0619555 106.5143902  16.7921173  89.8658849 105.9581549  16.0381996
  90.8908988 106.1758168  17.1304238  33.5193922   5.4494094  84.2611027
  34.4248583   5.4758739  83.9518070  33.5459712   5.8776187  85.1167679
  49.8671436  64.8868608  90.3886032  49.7992945  64.1608572  91.0087299
  49.2683077  64.6528864  89.6794605  38.9364436  11.2874157  34.6749127
  38.9829162  12.0037109  34.0416729  39.3610481  11.6336853  35.4597962
  34.8804190  94.3538077   6.9342720  34.7373488  95.2310545   6.5790379
  35.8320048  94.2505343   6.9413864  57.0805788  64.9946404  91.2263680
  56.1922598  65.3230000  91.0874557  57.0611477  64.1000557  90.8864117
  44.4726423  11.8284828   7.2192776  43.9661268  12.0163233   6.4290917
  43.8280061  11.4950497   7.8433716  84.2163181  58.9374352  80.8963108
  84.4957256  58.6978483  81.7799187  84.6128845  59.7952127  80.7440281
  52.5353336 106.2747097  81.0680199  53.1725454 106.8272400  81.5206909
  52.8794241 105.3863907  81.1614799   4.8878578   6.9171841  18.9276516
   4.6557334   7.6014263  19.5554840   4.8877576   6.1100132  19.4421494
  56.4860773  93.4367847  69.4620991  55.9932804  93.8697815  70.1591635
  56.4076710  94.0259552  68.7117958  61.3972664  88.1599903  67.1538591
  61.9610596  87.6345348  66.5861750  61.9346189  88.9154530  67.3921204
  66.7133236  73.4767437  88.8952160  67.2705984  72.9144335  88.3571815
  65.9966564  72.9069853  89.1744900  97.6018143  37.4149656  77.5800896
  97.7618504  38.3494115  77.7121305  98.3648682  37.1081471  77.0903492
  14.4018509  49.6524715  76.8119097  15.2014686  49.3953371  76.3528681
  14.4475509  49.1911602  77.6493692  94.0345955  76.5469265  82.8190804
  94.4661331  76.7696667  81.9942188  93.9052486  77.3884106  83.2565784
  92.1735096  65.5088377  70.6131601  92.6643753  65.8829546  69.8815012
  91.5470982  64.9133587  70.2017689  25.7576277  92.2832758   6.3049709
  25.4000952  92.4270661   7.1811688  25.0069430  91.9986923   5.7837021
  74.1255045  92.0583153  68.5368299  74.6753645  92.5607872  69.1380024
  73.6057949  92.7188301  68.0787420  96.2156391  68.1642056  54.5595503
  95.7546139  68.9420033  54.2453527  96.5546036  68.4172344  55.4182196
  51.8345407   4.6396191  50.1564133  51.5500215   4.5999081  51.0694897
  51.0884240   4.3058092  49.6583092  60.4074910   3.2967979  32.8574574
  60.1886800   4.0370781  32.2914707  60.8455804   2.6735193  32.2779476
  40.3233865  29.4722540  30.3270352  40.6310037  29.8521788  31.1499893
  39.4908860  29.9127275  30.1562798   0.8724548  74.9289083  81.3931561
   1.7056419  74.4687462  81.2916946   1.0102226  75.5119467  82.1397018
  36.3268045  63.3930284  15.5809891  37.2554115  63.2066328  15.4425060
  36.2498430  64.3379003  15.4486572  40.2599862  23.9330036  10.2739060
  39.5319703  23.5083229  10.7276356  39.8636916  24.3161232   9.4913494
 100.6888580  78.3767748  39.8622489 101.0470009  78.9998388  40.4945135
  99.7425652  78.4106398  40.0022984   7.7248813  56.6800404  81.7950535
   7.4534370  56.0584068  81.1196899   8.5976841  56.3853073  82.0550156
  57.2799158 104.2819691  64.5752573  58.1043100 104.4782925  64.1302109
  57.1993017 103.3297157  64.5210123  78.1020069  34.8081923  84.9204445
  78.6727381  34.4053698  84.2660522  77.3195982  35.0631166  84.4314861
  41.5125421  37.3658640  14.0066445  40.8945516  36.6533739  14.1699612
  41.1266473  38.1232340  14.4467747  40.6663087  25.9182960  14.6614086
  41.3331321  26.4108402  14.1828930  40.9809831  25.0143892  14.6486103
  40.7221511  33.3411581   5.3491413  41.4350322  32.9936678   4.8131478
  40.4138425  34.1094953   4.8686897  98.1444931  82.5579453  58.4433699
  98.9689445  82.0721149  58.4654188  97.5453949  82.0374489  58.9785194
  82.4405384  67.7686882  55.9091568  82.4423122  68.5395432  55.3416967
  81.6626740  67.2778988  55.6440449  82.9666042  73.4037018  79.7348547
  82.3180580  72.7028322  79.8011351  82.8813553  73.7247992  78.8371563
  87.3894787  82.0607281  55.5903339  86.5725899  81.5768909  55.7120514
  87.9707909  81.7247105  56.2725353  68.8815546  73.6429071  60.9615088
  68.1419182  73.5142851  60.3676891  69.3987989  72.8419590  60.8768129
  77.7093315  72.0061588  61.3383770  78.4678841  72.5625229  61.1614799
  76.9543123  72.5691891  61.1675739  94.1860580  91.7782974  65.4494238
  93.5729885  91.9328499  66.1680984  94.9779034  92.2519875  65.7040358
  78.3583498  80.3300476  59.5067835  78.2014799  81.2246132  59.2045116
  77.4953651  80.0120831  59.7721052  91.7383766  87.4374676  65.6941843
  91.7483616  87.1794510  66.6159010  90.8458900  87.7482319  65.5421162
  75.2419806  72.2760487  68.5391617  74.8324299  71.9869518  69.3545914
  74.5428133  72.2218943  67.8876495  44.8568776  32.4714262  32.5538265
  45.4137185  31.8011934  32.9499924  44.3160299  31.9928152  31.9256222
  93.5557747  84.8692703  56.7139816  93.8758373  84.2718410  57.3899031
  93.4582424  85.7089043  57.1631193  74.3377542  83.1596851  73.5660124
  74.8119879  83.5497379  72.8317118  74.9316931  82.4906826  73.9064455
  67.4354890  27.5960142  14.2753899  67.4403528  28.0365354  13.4255993
  67.9325536  26.7908937  14.1306507  78.0990362  67.6669359  66.6504240
  78.3233786  67.0193911  67.3186970  78.7972736  67.5916624  66.0000181
   1.0500624 105.9685929   8.9723408   0.8489468 106.2045224   8.0667317
   0.9877779 105.0135930   8.9905274  59.4230986  94.5280647  85.8059502
  59.7024727  94.1868210  86.6555023  59.5393705  95.4754066  85.8783722
  16.6325428  69.3429422  57.1153164  16.3493396  68.4286880  57.1024847
  16.5808059  69.6225643  56.2013340  69.3156887  94.6240695   6.7324936
  69.1244055  95.3748734   6.1704170  68.4562398  94.2655785   6.9539940
  72.4480915  75.8462715  85.9265518  72.8077650  74.9674988  85.8055878
  71.6063595  75.8253098  85.4712772  90.0307941  57.4019480  61.7542601
  90.5963421  56.6396809  61.6304159  90.0571346  57.5691843  62.6963711
   7.6099254  64.3662167  67.4716854   7.6823951  63.5621929  66.9573641
   6.7448284  64.7129536  67.2534847  22.0273879  86.9107087   8.7158215
  22.0910933  86.0150964   9.0475666  22.8397753  87.0435436   8.2273495
  78.1490469  33.6220050  80.3530312  78.7751675  33.8452697  81.0417652
  78.6904240  33.4606743  79.5802975 112.4437809  47.5989723  43.5991335
 111.7890549  47.1792269  44.1571426 112.6321888  46.9500256  42.9211950
 104.6294308  95.8760643  70.3357506 105.0522614  96.6656399  69.9980927
 104.0224838  96.1961460  71.0031319  90.5591583  40.5787468  81.1738682
  91.0954952  39.8708153  81.5308189  91.0403919  40.8782673  80.4025555
  88.8316154  53.8096666  65.3087473  88.4834290  54.4570160  65.9218884
  89.6029186  53.4530449  65.7493591  51.0877132  72.6681709  78.5628748
  51.0949469  73.5210133  78.9974260  51.3084841  72.8616953  77.6518106
  50.7834771   4.0347845   1.3853085  50.6710008   4.9521048   1.1361038
  51.6434053   3.7962467   1.0390961  19.7305921  34.6410257  14.3875229
  19.2533639  35.4691393  14.3353760  20.3533510  34.6773512  13.6615097
  55.9880400  82.0306778  90.0260067  56.8025637  81.5560341  90.1918221
  55.9112453  82.6387691  90.7612324  49.7191954 103.2578754  54.5856524
  49.9481297 102.8709888  53.7405872  49.0898657 102.6455688  54.9667835
  20.4631809  64.2324144  28.0232346  19.7697690  63.9574415  28.6230671
  21.1216834  64.6372015  28.5878193  47.2860006   1.0322887   1.0449040
  46.8462041   0.1881439   0.9437477  46.5735963   1.6614229   1.1585056
   6.4712860  43.4522152  66.1787128   7.0564701  43.0338812  65.5472231
   6.1455585  44.2295504  65.7249641  68.5049343  83.6079693  71.0077000
  69.3630123  83.9403725  70.7441616  68.1013870  84.3354225  71.4811993
  89.6371078 105.6346703  77.6695347  89.7553444 106.0508823  78.5233641
  89.0363312 106.2145710  77.2015381  84.1101551  58.3564186  49.3807268
  84.6750069  59.0036440  49.8029470  83.2240677  58.6018705  49.6468925
  55.4154447  43.3483202   1.9884312  54.5993856  43.1346781   2.4408066
  56.0925248  43.2537157   2.6583874  89.3213940  72.0339966  67.6936865
  89.0453911  72.2505522  66.8030930  88.5043144  71.9643307  68.1873941
  84.4087219  66.1671686  64.3960285  85.0104618  65.4381943  64.2452192
  83.7907887  65.8366966  65.0480843  29.0486816  17.8918583   6.5857041
  29.0563253  17.4601967   5.7313931  28.1284574  18.1077082   6.7367661
 110.8678246  85.6037903  63.1591225 110.6856441  85.6544971  64.0974569
 110.3403950  86.3039112  62.7745628  77.6172400 101.7139626  72.6269722
  78.3023787 102.1672726  72.1357155  77.8557968 100.7885742  72.5724602
  56.3477758   7.0408756  15.3305256  56.2357381   6.2519771  14.8001301
  57.0486406   7.5252850  14.8942196  47.5164464  43.4483702   2.2556126
  47.2922281  43.7019522   1.3602554  48.0983117  44.1435511   2.5628388
  55.0495720  79.9718332  63.1395054  54.8031712  79.1719627  62.6750374
  54.6883535  79.8591709  64.0187454  92.1511701  52.0091993  14.4479572
  91.2913850  51.8629915  14.0534794  92.1453527  51.4727194  15.2406704
  48.8038591  18.5551006  22.9232609  48.1180528  18.4803564  23.5868275
  48.9041570  19.4973118  22.7875626  92.2198963  78.5744143  88.5630608
  91.5353012  79.1552162  88.8950634  91.7569256  77.7723694  88.3209515
  72.4212220  56.8890554  20.7767975  72.5849202  57.3710710  19.9661839
  71.4755300  56.9562704  20.9086144  39.1916564  25.9182484  25.0678074
  38.7315133  25.9276564  24.2285168  39.4628385  25.0074036  25.1820862
 100.6825733  36.5408254  87.5740910 100.4546165  37.4077702  87.9097557
 101.6358280  36.4978075  87.6495647  50.8971882  84.8006821  74.3561077
  51.1736441  84.4644642  75.2086115  50.7736111  84.0182781  73.8186884
  73.2397890  62.7309275  73.0538559  72.3147249  62.8236198  72.8260469
  73.6988258  62.7776003  72.2152042  54.7887185  16.1670477  24.3121731
  54.1105321  16.1758358  23.6367333  55.3749326  15.4558451  24.0537464
  83.9349174  81.2612152  74.5932865  83.7037182  81.6040611  73.7300110
  83.5403156  80.3894997  74.6183491  74.2568258  27.7264292  28.7395870
  73.5869268  27.0435697  28.7054550  74.0122560  28.3368666  28.0440342
   0.6601955  59.6109343  66.8161917   1.4558364  59.9617481  67.2163296
   0.9214641  58.7564707  66.4728689  71.7966893  14.7973043   1.2721550
  72.2268155  13.9620048   1.4551651  72.0590738  15.3655512   1.9963658
  47.9702524  34.1910536  13.4399140  47.7654126  33.4570772  12.8606426
  47.1213773  34.4683439  13.7845146  89.8187923  54.9725580  49.2380428
  89.6615982  54.8596525  48.3006144  89.4892693  55.8500338  49.4321775
  85.9179401  56.3076591  48.3904552  85.2815342  56.9545317  48.6950493
  86.6665840  56.4133739  48.9774609  53.9852905  69.5948410  78.3191729
  54.1026068  68.7019396  77.9948235  54.3025351  70.1515818  77.6080990
  71.7308998  87.4858379  73.4408903  71.9643974  87.7930355  74.3168688
  72.5485373  87.5313091  72.9452801  70.4332307  33.4171278   9.1086208
  70.8546022  32.6718027   9.5365917  69.5149759  33.3568651   9.3720638
  78.9449310  57.9647064  87.4362755  78.3527470  57.2888184  87.1065331
  78.5114813  58.7899017  87.2185421   9.8997787  32.6693232  21.0585892
   9.3106893  32.5346262  21.8009293   9.3803027  32.4238951  20.2929890
  78.9626455  65.3519058  83.5212994  79.0809631  65.8575583  84.3253803
  78.9007187  64.4434929  83.8165569 105.2927399  69.2093658  63.9305878
 106.2231827  69.3856335  63.7911272 105.1756096  69.2767525  64.8782015
  75.9280062  89.3984890  69.1981268  75.6764555  89.7839260  68.3588505
  76.7351055  89.8535633  69.4383812  85.1746368  66.6603565  75.5063677
  85.4351807  66.7376661  76.4241743  84.4448853  66.0410070  75.5159044
  65.3602505  75.8433294  88.2240868  65.9794760  75.1401711  88.4199524
  64.7935963  75.4806900  87.5431824  74.1403058  40.0866205   2.9398739
  73.6804441  39.4800932   2.3594582  75.0609735  40.0046045   2.6911270
  84.0836430  70.0276518  89.3306541  83.3841801  70.6437683  89.5483208
  84.8874950  70.5420494  89.4044876  75.2049303  86.9518185  75.6015682
  74.4228745  86.4003277  75.5797482  74.8785019  87.8212643  75.8333874
  16.8574049  16.7163944  79.1547251  16.7632105  17.1016216  80.0259113
  16.5000918  17.3766994  78.5609579  44.9698022  48.0358774  18.2430947
  45.2504781  48.8813002  18.5933983  45.0130609  47.4403459  18.9912235
  88.8375378  86.9196224  73.6553288  89.6698380  87.3196983  73.4034252
  88.3148289  87.6467991  73.9933062  21.6857675  51.9439012   4.7813904
  20.7825473  52.2593958   4.7515690  21.8258813  51.7049677   5.6976425
  40.2860498 102.9615116  64.0758038  39.5939469 103.6026001  64.2377472
  40.5287504 103.0972862  63.1598902  75.6138086  56.6208363  90.2590466
  75.4970169  56.4893150  91.1999512  75.2601385  55.8257389  89.8603439
  80.3320217  71.9805241  91.2990475  80.0890827  71.1835289  91.7702293
  80.1944733  72.6846933  91.9326591  80.0597478  98.6437495   2.7507889
  79.5472432  98.1444008   3.3865750  80.8705474  98.8581450   3.2121670
  37.8820205  97.7438545  74.8636818  37.3866582  97.6890659  74.0464640
  37.3904538  97.1994591  75.4786825  68.0293802  24.5178110  52.4069321
  68.3919385  25.0626213  53.1054699  67.3846868  23.9630300  52.8460323
  57.0221189   6.8621475   4.7501957  56.7396501   7.3214704   5.5410587
  57.4437669   7.5374109   4.2187225  83.9463425  44.1470003  83.0714226
  83.1907177  43.6654854  82.7346611  84.2676353  44.6447420  82.3195839
  62.5709489  39.9822313   0.5492890  62.9196504  39.4423563  -0.1600635
  62.5177244  40.8622724   0.1765453  79.4591761  84.7668457  84.4084454
  78.9239836  84.0332317  84.1057682  80.0314903  84.3868351  85.0749874
  25.9976104  75.5009539  19.5695507  26.7747072  76.0152800  19.7882378
  25.5584577  76.0087950  18.8872921  97.6573372  69.5474672  51.1597204
  97.5968552  68.9050245  51.8667173  98.5746098  69.8210239  51.1624956
  57.0609474  88.5694599  87.5041771  57.4671936  89.4022369  87.7443027
  57.2670555  87.9835987  88.2325459  24.2263416  25.8175117  18.8025009
  24.1037992  24.8751718  18.9174473  23.6547283  26.0457117  18.0694210
  91.1988544  87.0866299  77.9158592  91.2903881  88.0393696  77.9035473
  91.3705826  86.8178368  77.0133686  18.9829780  13.5711193  61.6867590
  19.6795322  13.9985931  61.1884499  18.1840850  13.7650633  61.1964750
 108.7801361  50.6494093  83.4200478 109.6765614  50.9844494  83.4401989
 108.6542892  50.2500868  84.2808247  95.8762264 100.7289314  67.1806097
  96.7965031 100.8507824  66.9471979  95.3910732 101.1271763  66.4579296
  73.4473848  39.6790004  86.7414188  73.5766649  40.3946209  86.1190033
  72.5457191  39.3934441  86.5941620  42.5114301   3.8040764   0.9427559
  42.3619130   4.0278561   1.8613445  42.4405340   4.6381218   0.4784500
  32.5693515  40.3010065  12.4182331  33.3583740  40.3946192  11.8844616
  32.5597432  39.3780119  12.6716625  22.2886327  91.4575846  25.4931652
  21.4089540  91.1953146  25.7644951  22.7949670  91.4736349  26.3053238
  65.3304195  97.8999329  67.9246616  64.5651484  98.0696678  67.3753214
  65.9350348  97.4263096  67.3533916  50.5395129   7.1568870  73.9206934
  50.1600840   6.3947391  73.4832096  50.6396391   7.8070068  73.2253122
  47.2150472  32.5103552  11.4223206  47.7218011  32.8914339  10.7052338
  46.3502267  32.3489839  11.0451138  76.2883234  69.7350454  78.2287884
  77.1440125  69.4030190  77.9571486  76.0211086  69.1541243  78.9410830
  81.3747552  29.2674524   3.4192669  80.9632638  29.0056021   2.5956547
  82.1835283  28.7567884   3.4559071  34.7638801  29.1604025   2.4796307
  35.3806546  29.3652231   3.1823933  35.3131965  29.0495188   1.7036163
 107.5108624  77.6322889  69.9895763 107.2233009  76.8267536  70.4192877
 106.7444229  78.2050467  70.0168371  63.2843113  77.8511286  86.3880157
  63.3299160  77.0917225  86.9689178  63.0953693  78.5870409  86.9702244
  39.1015580  10.7073910   2.3451912  39.5498708  10.0687010   2.8995621
  39.3433669  10.4611380   1.4523708  69.3447733  32.3253846  87.1173573
  68.5688496  31.9148350  87.4989700  69.6612644  32.9187775  87.7985001
  72.5434923 101.0372543  52.3778915  71.8758869 100.3513050  52.3808765
  72.8907108 101.0296631  51.4859152  73.9242744  86.3730335  72.0423889
  74.1457033  86.2073040  71.1260223  74.7543859  86.2804317  72.5099087
  64.0490627  84.4546604  82.9951668  64.2142677  85.2025604  83.5692596
  63.9403629  84.8396301  82.1255684   4.3498565   6.7373449  90.7106113
   4.7350551   7.5687605  90.9873867   3.6229755   6.9881368  90.1405525
  83.6269188  52.6294851  86.9627762  84.2342663  52.5751781  87.7006149
  83.7966919  53.4882259  86.5755081  87.5150394  66.7054653  88.4107685
  88.3273983  66.4120913  87.9981613  87.6058102  67.6565790  88.4688473
  57.0165563  99.0894921  18.8611710  57.7039922  98.6424572  18.3673870
  56.3071311  98.4493477  18.9173615  23.2240299  21.6808493   0.5840122
  23.5139945  22.0336325   1.4252579  22.5006202  22.2502977   0.3220284
  49.0548277  39.1624689  81.1533737  48.7613869  39.5481467  80.3279114
  48.2477188  38.9963841  81.6404247  98.3788300  60.2636766  64.0257072
  98.2914352  60.6352663  64.9034977  99.2249393  60.5840588  63.7131548
  69.0817451  71.3198090  36.7204213  69.3698692  72.0876074  37.2140837
  68.2115650  71.5548706  36.3982916  77.0749048   5.8171875  23.7064564
  77.6299718   5.6286890  24.4631588  77.6810697   6.1381323  23.0387795
 109.8605061 104.6284659  14.3452656 110.1223899 105.4981263  14.0430367
 110.5129290 104.3982632  15.0067627  57.7711296  78.5410118  79.6058941
  58.3959770  78.9473486  80.2064705  57.7366161  77.6245832  79.8801088
  48.0952504  21.3247139   6.2506878  47.6729444  21.0381205   5.4409039
  48.2786229  22.2535116   6.1094582  83.9625168  95.6744289  61.4718008
  83.5702896  94.9924850  62.0170832  83.3194160  96.3834000  61.4754152
  49.6234849  11.6858417  25.6975853  49.0999273  11.4552767  24.9301445
  50.3762105  12.1575720  25.3410732  85.1601601  71.7749262  63.8844538
  84.4906807  71.3868570  64.4478607  85.5816555  71.0261583  63.4626389
  25.7756331  82.3517592   6.9211590  25.4119685  82.1686060   6.0548889
  26.3607409  81.6146667   7.0960247  84.9946117  68.0789804  81.1745834
  85.4289246  67.3521805  81.6210842  85.1620674  68.8378239  81.7334557
  77.1336031  85.9729385  66.9680214  76.2213373  85.7869816  66.7457056
  77.6094437  85.1848507  66.7058563 105.0708152   1.3614559  69.0473795
 104.6215964   0.7641315  68.4493494 104.8694850   1.0231494  69.9198723
 112.0364857  51.1352491  86.6808796 111.3988495  50.4891968  86.9846344
 111.5392113  51.9506073  86.6164303   8.9682295 100.3694422   6.8692791
   8.7171557  99.4746859   7.0986473   9.9164965 100.3278763   6.7455780
  51.8731073  50.4498178   7.4312317  51.1570886  50.6627447   6.8327248
  52.1176675  49.5530493   7.2026837  54.7304776  26.2666971  12.6793205
  55.0868848  25.5631096  12.1369469  55.4171422  26.9335062  12.6882374
  45.2458719  54.2659933  10.9294903  45.4328302  54.5472986  10.0338661
  44.5926240  54.8903543  11.2452042   7.8590728  86.8326855  69.3810034
   7.6093818  86.1561489  70.0104332   7.0945503  87.4064064  69.3301439
  89.7225857  66.5871620  49.0904808  89.7932625  65.8904600  49.7430515
  88.9709377  66.3368177  48.5532856  90.9473133  77.4786949  76.1800814
  90.7410240  78.3942461  75.9918165  91.2445164  77.4823475  77.0899630
  27.7056077  63.6991865   1.6723931  27.1082738  63.2123548   2.2402107
  28.5771564  63.4988100   2.0136845  81.4924622  81.7286491  53.6246014
  82.2076702  81.2218285  54.0090942  80.7230854  81.4861774  54.1398621
  86.4677620  75.4090214  73.3483362  86.4031601  75.7285500  74.2483091
  85.5786991  75.4865837  73.0022335  74.8791885  33.7703037  86.5610790
  74.3154144  33.0238581  86.3580704  74.7288942  34.3860388  85.8437824
  70.2513552  75.0051451  71.8781042  70.9786606  74.3979359  71.7418861
  70.5894470  75.6477642  72.5017738  56.3927129  36.4055044   2.8968727
  56.7335275  35.6448252   3.3674633  56.7213014  36.3016588   2.0038616
  44.6239808  36.7595274  47.6907837  44.9139646  37.1130640  48.5317051
  45.3782037  36.2687570  47.3643982 111.4863396  64.9175167  90.7756329
 110.7444382  65.1876831  91.3167667 111.7926025  65.7273865  90.3675270
  94.3693161 104.5611095  70.5920458  95.3118038 104.7010899  70.6834364
  94.2936039 103.8442612  69.9622583  14.0981104 101.8141444  13.7619793
  14.6005728 102.5219424  13.3585179  14.7566035 101.1675150  14.0159142
  57.0914701   7.8894360   1.3257420  56.4055780   8.4984285   1.0520374
  57.8678563   8.4379084   1.4381134 108.5889149  69.6897221  82.0326710
 108.9742565  69.3972588  81.2067127 108.9730167  69.1134930  82.6934719
   9.7050383  98.6421711  18.2127106  10.3026583  97.8993733  18.1271088
   9.6545412  99.0117724  17.3311913  14.0828086  45.7342339  86.7185688
  13.8974430  46.6705799  86.7901516  14.2323066  45.5904198  85.7841206
 102.5243282  84.7229004  84.0553665 103.4461117  84.9187565  84.2232418
 102.1027565  85.5807114  84.0036869  86.9698480  32.6618368   4.3990624
  87.6086000  33.2854444   4.0535938  87.4667695  31.8529016   4.5212376
  78.4227705  64.6819496  77.0220709  78.5841274  64.9572325  76.1196184
  79.1059351  64.0358496  77.2011709  62.2597551  87.2324467  87.9619503
  62.4990416  88.0629063  88.3734226  61.3061285  87.2680950  87.8873920
  73.1869698  90.8559322  82.4569893  73.3567905  91.2561703  81.6042233
  74.0310192  90.8848953  82.9075146  58.0548429  73.1595564  73.3108711
  57.3429585  73.5876274  73.7864828  58.5401344  73.8792610  72.9074478
  90.1715660  75.0972176  82.9166508  90.6943607  74.6467829  82.2533131
  89.8110008  75.8581257  82.4614143  40.6498003  93.1284428  90.8521461
  40.3432655  92.8388405  91.7114449  40.6150627  94.0840530  90.8950233
  66.1171627  72.2855186  42.0338726  65.3047705  72.6518488  41.6845226
  65.8909512  72.0031309  42.9200554 100.6162262  75.1357031  56.0595512
 100.7077026  76.0424328  55.7667923 101.4542007  74.9325228  56.4751768
  97.9592323  56.9895554  58.6576223  98.6211967  56.3827610  58.3262110
  97.1242619  56.5723705  58.4454584  75.7623100  58.3697605  88.4443665
  75.1020670  59.0544653  88.5515499  75.7191944  57.8661013  89.2572021
  90.7242966  63.5987043  69.6829700  90.7738781  62.8196335  69.1290569
  90.2015114  64.2200470  69.1761589  58.1813672   4.2964155  36.7098820
  57.9836992   3.7846929  35.9254658  58.5145238   3.6545259  37.3369419
  32.8095821  26.2428314  18.6407673  32.0584968  26.4272768  19.2047512
  32.7140621  25.3189928  18.4091866  31.1185029  32.8268320  35.7305348
  30.2917960  33.2496054  35.9630310  30.8679250  31.9437200  35.4593193
 107.1296883  41.4201927  73.1584072 107.8983116  41.1606693  72.6503706
 107.2286320  40.9624290  73.9932108  68.2282925  75.7241678  80.2785397
  68.2929611  75.9927559  79.3620682  67.9410839  76.5124035  80.7394314
  83.7488556  61.4282465  84.0100098  83.1705093  60.8457041  83.5176754
  83.4197521  61.3895845  84.9080276  46.0235739  63.7329531  65.5043411
  45.0851440  63.6918640  65.3202200  46.2775755  62.8229523  65.6579876
  69.6573114  71.8830967  57.0072508  69.5279169  71.0997105  56.4726496
  70.6074953  71.9595051  57.0941448  97.0977116  85.2040672  75.0270367
  97.3442554  85.9429359  74.4706917  96.2300777  85.4337883  75.3597212
 105.4701996  53.2729292  40.8987808 105.2111053  54.1121960  40.5183458
 105.2836609  52.6314354  40.2132750  99.7781658  73.7588978  63.2489014
  99.7506714  72.8032398  63.2957745  99.4242382  73.9665604  62.3841238
 101.5785790  22.0298290  56.0976171 101.5514327  21.6971683  55.2004957
 102.2401095  21.4918899  56.5326262  78.3936596  69.1246939  60.5327225
  78.7881660  69.9223089  60.8854342  78.7224865  68.4250259  61.0971403
  98.5179330   6.8310832  51.4137602  98.5588647   6.6123866  50.4827785
  98.0614472   7.6719379  51.4424276  90.0082493  54.6845627  87.1586895
  89.8132706  55.6051683  87.3338890  90.0116730  54.6179819  86.2038136
  11.0205367 104.7107298   8.8078129  11.6699507 104.2554123   9.3437016
  11.4914801 104.9445660   8.0079567  96.5604019 103.2223320   6.0556644
  96.1697578 104.0928841   5.9796154  97.1566677 103.1613445   5.3093529
  83.4219837 102.3998547  66.0232258  83.7717152 102.9303360  66.7391205
  82.5760365 102.7991581  65.8203602  99.1936684  19.4660592  70.9658432
  99.7704506  20.2255988  70.8842707  98.3773708  19.8218119  71.3170481
  88.5240078  72.0446253   7.7578777  88.0022240  72.4801636   8.4318846
  89.3894863  71.9424295   8.1537759  88.1811905  99.9636841  66.2843227
  88.5512924  99.7863102  67.1490717  88.9307880  99.9245358  65.6903505
  45.7399752   7.6446819  80.5237579  46.5165808   7.0860385  80.4915905
  45.0644019   7.1421241  80.0685024  59.3649485   2.4223709  72.9770708
  59.4724753   2.1296405  73.8820410  58.4419444   2.6676464  72.9127502
  25.9686663   9.9544715  72.4487686  26.7862227   9.4819641  72.6055431
  25.8089163  10.4331397  73.2621527  92.0033073  98.4153366  61.6120291
  92.0778370  99.1313171  62.2429371  92.6997471  97.8063011  61.8575335
  72.2582868  40.0376398  19.6930134  71.3970426  39.6405966  19.8227894
  72.8693059  39.3017466  19.7299874  39.8132110  98.8671112  61.2608528
  39.1836524  98.7009335  60.5592299  39.3306732  99.3974686  61.8949747
  71.0989240  76.7676622   0.4229843  70.9353784  75.8248217   0.4463112
  71.6747335  76.9294340   1.1703121  66.4047575  78.7233543  49.5393658
  66.8111610  79.3850517  50.0990295  65.6924534  78.3659315  50.0695562
  40.5048230  39.9337465   2.2995674  39.8471788  40.5738432   2.0275318
  41.3421634  40.3743631   2.1548378  46.1408857  62.3739988   3.5307038
  45.4446080  61.8079836   3.1974518  46.3512281  62.9520780   2.7973473
   7.7031805  98.7551672   0.9655296   8.5026362  99.2304642   0.7392609
   7.8677657  97.8579266   0.6755173  64.8932934  81.2101555  86.2079906
  64.5259666  80.5760860  86.8238354  65.5368233  80.7107162  85.7053375
  11.2507774  71.2762213  76.5906191  11.0736229  70.3435850  76.4679670
  10.8832122  71.6942644  75.8119202   6.5367033   3.1140422  70.2260971
   7.4250987   3.2685279  70.5472088   6.4057066   2.1713447  70.3280640
  72.2453740  42.7370912  12.1633541  72.5035146  43.5661299  11.7605221
  72.3628190  42.0872766  11.4704048  66.0609773  -0.0794571   3.4191429
  65.7201627   0.2715761   4.2418587  66.5351728   0.6524689   3.0246174
  91.9807339 105.6746101  46.5764046  91.7393112 106.5869713  46.7362309
  92.5736904 105.7117176  45.8258963  61.8385031   1.4240550  86.7537117
  62.6767352   1.3597392  86.2960434  61.3719656   2.1269035  86.3014030
  87.9358864  74.3071318  53.3200312  87.9806519  73.7007761  54.0593290
  88.8275337  74.6440220  53.2322502  95.3408623  89.3945122  54.0956450
  95.8442974  88.6013889  53.9119673  94.4306660  89.1415310  53.9414597
 105.3404999 104.0415382  72.8720236 104.8758316 103.2237434  73.0495882
 106.2458992 103.8625622  73.1259012  13.0546238  67.8585672  76.5031338
  12.7574207  68.3410358  75.7316875  13.5254146  67.1048117  76.1475372
   0.1181462  12.7272224  72.9928827   0.6130125  12.4846553  73.7755060
   0.6338742  12.3785495  72.2657728  87.8381157  78.7140465  76.8547344
  87.7339840  79.6483898  76.6747570  88.1437969  78.3432817  76.0268927
  92.4020386  48.4553289  80.8233738  92.1013737  47.9954386  81.6071701
  92.5921631  47.7586937  80.1950550  79.2461065  38.7742788  13.6020672
  79.8176816  38.7904913  12.8344261  78.3757547  38.9731867  13.2568752
 103.3541107  79.9017239  89.1513729 102.6756382  79.6156168  88.5397816
 104.1668797  79.5481014  88.7900066 103.1343555  46.7485237  61.9341278
 103.3349419  45.8479214  61.6793585 103.9857292  47.1343899  62.1402931
  62.5285295   2.0977718  11.6282189  62.0893243   1.9785053  10.7861340
  62.2457269   2.9625780  11.9254887  17.8434421  73.9780331  51.6287756
  17.0981456  73.6891842  51.1021614  17.5136615  74.7323608  52.1171093
  63.6731866  32.5081427  18.2574474  62.7294782  32.5634081  18.4077465
  64.0637830  32.8836138  19.0465557  60.4928258  28.4917719   8.1654751
  61.0310128  29.1883356   7.7894509  60.4899171  27.8049738   7.4987518
  17.3567344  87.6192570  70.3887987  16.5130188  87.7152252  69.9470234
  17.2325660  88.0445671  71.2372828 101.6938972  68.3678722  51.5148258
 102.4823093  67.8639364  51.3130951 101.0192966  67.7062225  51.6676664
  53.7808755  26.0490496  20.1883518  53.4155992  25.3553135  20.7374680
  53.0483392  26.6467173  20.0386345 108.5719299  78.2843733  87.2281456
 108.8671875  78.7667084  88.0004215 108.0973244  77.5323868  87.5823975
  87.0694688  30.5849535  19.8548042  86.4858487  30.8732492  20.5565941
  86.6771558  30.9386713  19.0565598  85.7511665  65.7681066  13.0879986
  86.3859119  65.8197386  12.3733818  86.0262241  66.4486963  13.7022984
  15.9900191  34.7932529  91.6512489  15.3881934  34.3467044  91.0557461
  16.5350058  35.3342342  91.0797882  82.5980809  55.3979284  16.1300003
  83.4284833  55.7235319  16.4773667  82.8294709  54.5871813  15.6768047
  15.0267986  37.4536402  28.8008606  15.9468892  37.6792318  28.9378941
  14.8558858  36.7524893  29.4296753  70.1746038  78.9314539  36.6365826
  70.8410028  78.6645300  36.0034287  70.3387121  78.3820421  37.4030316
  19.9411776   1.5341854  80.0911522  20.8054831   1.8071651  79.7834349
  20.1172640   0.7997989  80.6792927  35.1547911  17.6515674  87.6248741
  35.3129294  17.3426628  86.7327881  35.7847025  17.1693420  88.1605148
  68.2181314  50.8596403  15.6675160  69.0203813  50.3583223  15.5215275
  68.2373861  51.5429003  14.9974358  47.2393468   8.9666016  12.3802960
  46.6557458   9.5141918  12.9054463  47.3257211   8.1571180  12.8837883
 106.3710499  95.6976795  64.9732208 106.9618797  96.4272404  64.7864246
 106.5215683  95.4981232  65.8972120   1.1567165  71.2403584  57.1365356
   1.2643959  70.2992010  57.2738409   0.2284481  71.4023018  57.3048496
   7.7721740  68.4409857  76.5101671   7.7664997  67.8655910  75.7452345
   8.6259891  68.2912874  76.9161558  91.1753038  54.9916632  21.7552006
  91.1196378  54.5669538  22.6112091  90.5721620  54.4953615  21.2019074
  91.7193508  88.3181286  86.1817646  91.1947441  89.0513325  86.5033627
  91.8134117  87.7405071  86.9392204  50.4102567  58.4484941  14.0675938
  50.0632051  59.1428835  13.5075771  51.0043767  58.8992197  14.6676647
  78.8299274  69.3052483  21.4972377  78.5822630  69.1037655  20.5948544
  78.6346531  68.5043478  21.9837165  50.6501821  28.1191713   1.9694149
  50.7489351  28.9945394   2.3438656  50.5237249  28.2720930   1.0330116
  10.4464485  55.1630735  86.6631699   9.9911167  54.3357038  86.5070820
   9.7542240  55.8239937  86.6479969 100.6074333  75.4805470  83.8969040
 100.8770752  76.3739109  83.6837673 100.4510307  75.4963923  84.8411083
 107.8955269  92.3415375  80.5418682 107.2174549  91.7202282  80.2764893
 107.4799252  93.1997490  80.4583931 101.0232067  64.2136526  90.7731819
 100.5618095  64.3017387  89.9391651 101.7008972  64.8890352  90.7444859
  20.5194999  61.0802650  90.1860046  21.0488178  61.7284727  89.7213745
  20.5152847  60.3164816  89.6090698  32.2636321  30.0145513  18.7473499
  32.5335410  29.1160662  18.9373886  31.7250350  30.2665693  19.4974339
   4.0517665  94.4658566  53.4039974   3.1582595  94.1359234  53.3089972
   4.3849422  94.5164108  52.5080776   3.3862926  77.4796534  78.3232450
   2.7084400  77.1528482  77.7316904   3.7962581  78.1993341  77.8434420
  16.2571766  77.5847960  76.6448116  15.9662105  77.5129604  75.7357359
  15.4580356  77.7697754  77.1381617  60.9282449  27.4250681   3.3022511
  61.4806131  26.6554815   3.4395706  61.0300401  27.6301939   2.3728478
  72.5581455  73.3478832  62.5074387  72.4729776  73.8790703  63.2991552
  72.9148388  72.5146723  62.8152657 101.4944267  88.0735111  63.6600637
 102.3887253  88.4145260  63.6471462 101.2264729  88.1386375  64.5766783
   5.2240421  87.3779774  62.4691534   5.4400970  86.8377113  61.7091131
   4.5554306  87.9840183  62.1499300   5.2711871  27.8460788  77.6795816
   5.6830122  28.7080764  77.6196432   4.3333056  28.0231571  77.6071167
  82.4538898  70.0959015  85.3132153  83.1552696  69.8396111  85.9120655
  82.5333786  69.4887972  84.5774651  72.2203687  34.4654352  -0.1513183
  71.2857583  34.6188051  -0.0127113  72.6539281  35.0554258   0.4652702
 110.3065395  93.8665867  78.9478159 109.3859386  93.6135101  79.0163374
 110.3199673  94.5392704  78.2669783  61.5800718  33.7504846  45.1973736
  61.8884137  34.0639383  46.0476124  61.5638498  32.7974398  45.2849781
  96.0132408  64.7426367  55.0072813  96.7435932  64.6077538  55.6111240
  95.4039383  65.3016567  55.4894400  11.7456485 101.4250088  69.9742508
  11.4860107 102.0664978  70.6355476  11.4315559 101.7922688  69.1479921
  83.4271145  82.6508904  81.9141769  83.5559368  82.4302387  82.8366470
  83.5459328  81.8218327  81.4507389  90.4017353  99.2512608  74.0986252
  89.4831085  99.5077896  74.0177059  90.7188320  99.2084980  73.1964874
  23.5550931  35.1672155  16.4509880  24.2806533  34.5683176  16.6273987
  22.7690700  34.6423990  16.6025459  76.8730402  91.8069172  91.5410709
  76.1481714  91.6471195  90.9366989  76.9218683  92.7604008  91.6097355
 101.7710972  80.7965183  48.4905481 101.6601562  80.9022331  49.4354010
 102.1388817  79.9186134  48.3893156  33.7354806  45.8711130  19.9713146
  33.3759168  45.0002462  20.1402104  34.3815664  45.7332785  19.2786324
  91.3275909  55.1189709  61.7230844  92.1117210  54.9672794  62.2506905
  91.5923595  54.8954773  60.8307981  99.8724461  78.7397099  76.0434008
 100.6188297  79.3199492  76.1932898  99.8339558  78.6398172  75.0922060
  11.9128040  47.0503504  15.2665054  11.4556745  47.7332766  15.7573044
  11.7556194  46.2497217  15.7670223  25.8779193  52.2561741  66.3782120
  25.6380893  51.6281700  67.0596266  25.2633335  52.9809141  66.4933920
  90.6073716  43.8931066   2.6416695  90.4102567  43.8337786   1.7068684
  91.5634778  43.8822538   2.6860058  61.6368249  19.4225866  34.9305451
  61.3235143  19.1811068  34.0589058  62.3959592  19.9818546  34.7657501
  58.9854956  75.6436062  56.3973570  59.6314144  75.6914854  57.1021461
  58.7967682  74.7094154  56.3084936  85.2700233  98.5725784  74.4171429
  85.2151871  98.8987446  73.5189009  84.7035217  99.1581154  74.9195814
  31.8109706   0.2506096  21.1656391  32.1171382  -0.6426876  21.3221848
  32.0709661   0.7338125  21.9499504  47.0820573  38.1628973  33.5591900
  46.6403631  37.3438341  33.7833988  47.2557214  38.0922014  32.6205361
  78.3113909  83.2822609  57.6118660  78.8660431  83.9356995  57.1857023
  78.2482815  83.5774136  58.5202360 103.4276199  53.8956881  63.0515909
 102.7105141  53.3346796  62.7561712 104.0127468  53.3060074  63.5271215
  42.9850581  14.6067333  59.8652601  42.6982882  14.8907375  60.7332134
  43.7938025  15.0942611  59.7088003   1.5151265  16.5859413  36.0480094
   0.7964423  17.2181701  36.0455227   1.9718602  16.7392444  35.2208900
  18.1416275  70.3832102  68.1505823  17.2317077  70.6566429  68.0343199
  18.1162025  69.4291306  68.0776024  94.0735435  70.3108835  50.9210062
  94.8980808  70.1212215  50.4733467  93.6368561  70.9500694  50.3579998
  35.5197290  33.9259703   9.1827976  36.3050321  34.0992815   8.6636746
  35.6154540  33.0165178   9.4656002 103.4118843  83.0117893  62.4354124
 104.0086079  83.6373043  62.8463650 103.0485344  82.5117302  63.1662703
  47.5023988  28.3750994  21.6441452  47.4580529  28.6077196  20.7166969
  46.9386915  27.6057703  21.7253315  69.8059416  88.8873959  82.9991055
  69.1374302  88.2146072  82.8699780  70.3745461  88.5320663  83.6822224
  32.1608260  46.5548498   2.0534622  32.4783471  45.6553156   2.1325123
  32.0431236  46.8475801   2.9571736  14.3913939  22.9913997  85.7199860
  14.3145277  22.3499488  86.4262962  15.3340914  23.0844783  85.5825233
  70.8552074  80.6923294  85.4458237  70.5940533  81.4219475  84.8839664
  70.1120090  80.5663872  86.0357571  38.0920080  31.7216379   7.4069225
  37.1561006  31.9220240   7.4190247  38.5203508  32.5776083   7.4156582
  56.7665246  13.4375078   1.6050160  56.8651250  13.8807756   0.7623875
  55.9830430  13.8288862   1.9913017  71.2909940  19.7288305  18.5932266
  72.1460965  19.5937330  19.0016186  70.8594182  18.8765795  18.6535847
  39.9610141  43.1617529  40.3881561  39.3774131  42.4129278  40.5102455
  39.3727258  43.9026529  40.2425301  90.5078271  10.1914865  13.9922058
  89.8294118   9.5558292  14.2200672  90.1775602  11.0249073  14.3277085
  50.7395891  55.6046850   2.0900643  49.8802713  55.8509905   2.4323380
  51.1067918  56.4222128   1.7538368  93.3447221  35.7731802   5.8929264
  93.3432725  36.5400583   6.4657509  93.1633905  36.1249144   5.0213539
 101.4605236  69.0013742  65.6444645 102.1328735  68.3645725  65.4022455
 101.8959522  69.8503351  65.5676699  84.3163255   5.3468639  14.4845402
  83.8286260   4.5307428  14.5955765  84.3678811   5.4679758  13.5364258
  56.5869859  19.2133505  23.5821926  55.8923009  18.9490015  24.1853249
  57.0533517  18.4014398  23.3833706  94.7448063  71.5064287  62.1087456
  94.4274712  70.8590460  61.4791203  95.6614590  71.2713242  62.2526121
  95.1374245  67.3580742  85.0317287  94.3584156  66.8571377  84.7899914
  94.9683571  68.2393885  84.6986771  58.4986928  12.6796371   3.7042343
  58.0431703  12.7566893   2.8658974  58.4301523  13.5507471   4.0950119
  56.6427472  29.5821554  40.8904373  56.0641530  30.3404028  40.8096707
  56.2560132  29.0595228  41.5929424  84.2039967  84.3477917  71.8664360
  85.0211334  84.3347454  72.3647833  83.7970734  85.1833630  72.0954943
  67.9633191  35.1398546  42.5464165  67.0172742  35.2842028  42.5263607
  68.3043340  35.6884367  41.8400204 105.8864403  86.5409279  87.7995586
 106.3359165  86.9079113  87.0382881 105.5524635  85.6966209  87.4965096
  87.5365353  88.7841034  51.4104176  88.4338188  88.9120865  51.7182159
  87.0974159  89.6129990  51.6010237  83.9724922  68.4734774  86.7188644
  84.6098709  68.6131763  87.4192047  84.2343903  67.6443911  86.3185406
  14.8624088  90.7230282  80.4103851  15.5451061  90.1127911  80.1314926
  14.4501545  91.0099125  79.5955372  75.7546234  75.1299906  75.0653172
  74.8736954  75.0378370  74.7024107  75.6149864  75.4657555  75.9507513
 100.5378246  57.1576738  55.2197409 100.4492378  57.1410704  54.2667913
 101.3755608  56.7270279  55.3899527  47.0324137  24.3200206  87.6442814
  46.3678839  24.8255729  88.1123257  46.5378764  23.8115882  87.0014954
  88.7899208  53.8430071  71.6686344  88.4593201  53.0041170  71.9898701
  89.7252941  53.6945343  71.5298700 101.6738415  64.8724604  59.8847485
 102.0623112  64.5708275  59.0635681 101.8592834  65.8112669  59.9068213
  59.1226438  21.2220270   4.6866429  58.1773809  21.0779077   4.7306835
  59.2254499  22.1685869   4.7850430 104.2786980  81.8935394  67.0099592
 103.7713623  82.6381779  66.6869116 104.6298981  81.4822960  66.2201691
   1.3560822  16.6019153  85.8419895   0.5872872  16.7668247  85.2961063
   1.4066746  15.6479740  85.9025383  95.1189899 103.7739658  66.0351324
  95.3379250 103.0291176  65.4752302  94.3294621 104.1454887  65.6416321
  48.1652692  54.5616323  21.9012844  47.9026082  55.4124147  21.5499890
  48.0363706  54.6425707  22.8462994  65.4900125  15.9922106   9.4908440
  65.2872327  15.9295637  10.4242241  65.4194597  16.9259865   9.2925656
  22.0982696  65.4059935  74.9775600  22.7570869  64.7747040  74.6883059
  22.6004840  66.0912085  75.4185677  84.7316742  76.6651154  69.4116688
  85.2570629  77.3707676  69.7888422  85.1936340  76.4257240  68.6082268
  59.6820119  25.2755720  45.8995545  59.3651632  25.3487713  44.9992859
  58.8915399  25.1363499  46.4210999  84.6742344  99.1897964  82.6886559
  85.5310154  99.3164349  82.2810841  84.0531349  99.2439842  81.9623470
  87.3123837  66.1068010  92.1600246  88.1107998  65.9826851  91.6468430
  87.1407509  65.2484560  92.5473404  97.2355938  76.9592714  76.6007805
  97.3387241  76.0224867  76.4333630  98.1280136  77.2781897  76.7354012
  61.9448617  19.6908457   9.3473541  61.3746312  20.4549105   9.4325840
  62.8110650  20.0571281   9.1691219  46.7489866  41.2128336   6.3907349
  45.9300950  41.5248758   6.0056603  46.4740613  40.6441004   7.1098911
  93.2638168 105.6989384  61.9145203  92.4719620 106.2319660  61.8433046
  93.7972355 106.1488152  62.5697374  90.2087498  80.5381107  71.2758589
  89.5304775  81.2101841  71.2086725  89.9418354  79.8650312  70.6498003
   5.8357860  92.1933746  38.3288598   6.2236740  92.6347733  39.0844655
   5.4723503  91.3828468  38.6855006  13.8539840  96.5477467  49.0626717
  13.5498191  96.9146729  48.2325602  14.1632988  97.3047733  49.5601368
  89.1796112  59.0919542  75.3972387  88.5188484  58.5358143  74.9845266
  88.8846493  59.1821909  76.3033772  72.8844929  75.7571888  44.8114347
  72.8955221  76.7061663  44.9361563  72.1085835  75.5951452  44.2748356
  55.2901796  36.9724066  37.9989350  55.7608941  36.5593225  37.2750485
  55.9576753  37.1102983  38.6709988  62.6082662  38.4846670   8.7048161
  62.4746183  39.1880209   8.0694592  62.4978498  37.6800806   8.1981766
  79.5608902  81.2205791  78.3498764  79.4083977  81.8016052  79.0951204
  78.7519026  81.2671947  77.8403664  37.7429059  38.6861879  15.8271038
  38.5045675  38.9387495  15.3052723  37.7863553  37.7308256  15.8674824
  40.0672820  14.2879087   4.3021214  40.8130315  14.8086054   4.0038407
  39.5222095  14.9067003   4.7881424  92.5381851  85.6389332  72.6846457
  92.3627472  85.1047039  71.9100189  93.0575562  86.3730526  72.3566818
 101.9922256  88.0880260  77.6118517 102.2457123  87.3944092  78.2208347
 101.4307690  87.6511097  76.9714546 112.2070312  74.1069794  59.2572069
 112.3288441  74.5586014  60.0923300 112.4139214  73.1919527  59.4473362
  84.3847466  68.0766964  62.4347448  84.5512772  67.4855757  63.1689644
  83.7606621  67.6043177  61.8837357  84.9581337  77.0550919  84.7236729
  84.9854279  76.1256647  84.4964027  85.7862759  77.4061346  84.3962765
  82.9577065  88.6175632  60.4087925  82.9684830  89.1949272  61.1721849
  83.8589859  88.3043289  60.3326511  76.1133385  71.5916586  76.0032606
  76.5011597  72.3637629  76.4151764  76.2638617  70.8844757  76.6305304
 111.4017010  95.7740688  92.0241833 111.6826916  94.8629951  91.9392014
 111.7900372  96.2159061  91.2690639  74.7342539  75.1016617  65.1509809
  74.9526644  74.7952271  64.2708492  73.8195133  74.8474884  65.2729607
  31.2957528  46.0116941  15.8513271  31.6462854  46.1762125  14.9759495
  31.9018415  46.4610369  16.4403832  67.7782682  15.4755337  22.9753124
  67.3103956  14.7944433  22.4921620  68.6879781  15.1780540  22.9882252
  66.5908006  39.9570829   3.2033264  65.6636003  39.8601992   2.9862129
  66.7015031  39.4548208   4.0106117  98.1285667  94.2636395  77.3017883
  98.4489822  94.3443203  78.2001495  98.5607243  94.9746704  76.8285990
  30.7110407   3.7803268  77.5661469  30.5268576   3.2480812  78.3401108
  31.5056994   3.3967018  77.1952295   6.0562946  73.1664801  79.8276901
   5.6935169  72.5933409  79.1523075   6.1526443  74.0150070  79.3953180
  93.3112431  76.4551640  74.8562193  93.9324093  76.8266678  75.4826069
  92.4799728  76.8835258  75.0605011  90.4665184  69.6232462  62.6095629
  89.7605419  69.0358639  62.8793859  90.4072380  69.6460676  61.6544724
   8.7710144  92.9647923  61.5308094   8.8227417  93.0533123  62.4825001
   9.1662838  92.1124649  61.3477039 102.5527382  77.5294828  50.9446287
 101.7211437  77.1478367  50.6634951 103.2148457  76.9035101  50.6513834
   4.0190078  62.9595804  84.8459721   4.5610382  62.4661446  84.2303753
   3.6881878  63.6982870  84.3349934  98.6855984  69.2143393  88.1125927
  98.9459610  68.6745119  88.8589382  97.7426243  69.0715599  88.0311012
  77.3784208  27.9172611  80.1910973  78.1892157  27.7971864  80.6854916
  77.3452806  28.8565612  80.0098515  46.9759515  35.6346018  34.1099941
  46.3335279  35.4089815  34.7827637  47.7610830  35.8778650  34.6005165
  75.8254385 100.5549526  67.6020765  76.7139292 100.6486893  67.9456377
  75.7495165 101.2448215  66.9428778 103.8777542  76.0746002  88.4045982
 104.0939713  75.2919436  87.8977108 104.6390152  76.6454172  88.3002377
  53.7466386  39.8604566  24.7512352  54.2228368  39.1880400  25.2383911
  54.3795350  40.5701334  24.6415150 113.2346440   3.6095237  66.7474937
 113.7252141   4.2343711  66.2135077 112.5209475   3.3180618  66.1801147
  42.9417756  37.7987368  33.6753475  42.3258546  38.4781153  33.4009087
  42.5476602  37.4217493  34.4619858 111.7736626  60.3972483  91.9857788
 112.0256805  60.5898523  91.0826588 112.5281906  59.9357462  92.3517609
  35.7128480  31.3948900   9.4649136  35.0555566  30.9238512   9.9770844
  36.5452197  30.9963114   9.7189438  69.1798115 104.2065144  79.1944027
  69.6087122 103.4247112  78.8464689  69.5409584 104.3058681  80.0752735
 109.5445824  78.2396507  57.2620344 109.6280861  77.9264212  56.3613987
 110.4097939  78.5891867  57.4752474   0.8969165  77.2380733  50.4430723
   0.2713539  77.4627113  51.1318731   1.6440631  77.8153181  50.6005192
  40.8849195  22.3140747  17.7141583  40.0735429  21.8090088  17.6611626
  40.6651214  23.0629665  18.2683003  84.7812557  66.9610834  84.3860912
  85.0090408  66.3648129  83.6727905  83.9141369  67.2929096  84.1532040
 110.9217358 101.5182304  83.7438202 110.3155994 102.1418953  84.1436672
 111.5993309 101.3843060  84.4065189  83.7210751  76.1955976  74.1970968
  83.1617928  75.5778885  73.7260580  84.3281364  75.6423092  74.6886015
  35.2157453  25.9489424  22.5475228  34.4385627  26.0921747  23.0876171
  34.9314740  26.1596138  21.6581165  24.0622093 100.6727886  91.7093563
  24.1486122  99.9197578  91.1247921  24.7588207 101.2695408  91.4357758
  73.8522720  77.9591179  56.6118860  73.8540697  78.4993935  57.4020290
  73.6338139  78.5677052  55.9061003   8.1698276  76.6989040  85.0471115
   7.7425434  77.4563313  84.6471596   8.3096172  76.9562817  85.9584045
  12.1283104  77.7256823  53.1467915  12.4040271  78.3332491  53.8331413
  11.6378166  78.2683516  52.5294209  92.3026752  89.9939537  64.3419790
  92.8233719  90.6596661  64.7913504  92.3485184  89.2277145  64.9138260
  13.7412025  78.7758398  59.3601656  13.0439521  79.3732262  59.6307087
  13.8065578  78.8973141  58.4129572  95.2191639  84.9400425  66.8432617
  94.8489571  84.7603416  65.9790373  96.0788631  85.3196049  66.6613531
  29.4921926  45.1956636  19.7268593  28.8867572  45.0064737  19.0100014
  29.9883846  45.9571630  19.4266236  47.9441931   1.4674472  64.8381948
  48.7413790   1.9175147  65.1177597  47.6202300   1.0395526  65.6307745
  42.9968217  53.7382013  16.6848671  42.2220424  54.0873129  17.1253979
  43.5192254  54.5111544  16.4706719  23.4390119  48.5690100  20.8664429
  23.8326457  48.9577181  20.0852883  23.9966253  47.8172571  21.0668385
  87.8563499  92.7913666  58.8240767  87.6489258  91.8569279  58.8299942
  87.2920513  93.1576633  58.1431723  51.2067560  35.0174505   8.4445488
  51.2003759  35.5746347   7.6662552  51.6399053  35.5465681   9.1143620
  68.9554933  38.2923395  12.2538864  69.1114572  38.9107401  12.9676735
  69.6378473  38.4899980  11.6123593  50.4953626  82.0378286   7.9519856
  50.0667814  82.8500349   8.2219135  49.9872735  81.3464338   8.3763230
   4.6387389   3.8282489  79.8127747   4.5897868   4.4247341  79.0657520
   4.1166308   3.0706119  79.5489311  45.7824564  85.6326199  47.6521111
  46.4376450  86.3238907  47.7475929  46.1287355  85.0682354  46.9608831
 110.0178243  17.1327781  91.9859886 109.4459964  17.1441364  91.2184525
 109.5237447  16.6458988  92.6455784  17.3580696  96.7561626  75.2595520
  16.6149570  96.1669445  75.1298571  17.4503566  97.2129059  74.4234324
   8.5567191   5.9227180  63.0475521   8.9871600   6.5736102  63.6018848
   7.6390364   6.1941909  63.0277920  14.4203474   5.4058647  70.0797892
  13.6077311   5.8426570  69.8246431  15.0797751   6.0995387  70.0656414
  77.8670362  43.7839109  20.2107632  77.2595838  43.2521135  19.6965420
  77.7857450  43.4456236  21.1024868  96.6392994  95.0212574  55.2572870
  95.8546543  95.1535606  54.7252512  97.3173046  94.7766209  54.6274471
  31.6485503   1.6917896  87.2100258  32.3163321   2.2790145  87.5642204
  31.3851454   1.1515617  87.9550076  27.3797514   8.2340240  80.0504398
  26.5828135   8.4973144  80.5106544  27.9400542   7.8654479  80.7334042
  65.7528593  16.9822311  76.9257641  66.6109278  17.2995471  77.2072935
  65.9398081  16.1666583  76.4608574  79.2069677  73.9716799  16.3154804
  78.5331205  73.3364183  16.0733711  79.4330362  73.7486154  17.2184574
 102.1314716  91.3211632  64.3386364 102.5058651  92.0718193  64.7996998
 101.8568516  90.7248592  65.0352287 108.0530167 104.8345757  48.0922127
 108.2060432 105.4214382  48.8327599 108.8220310 104.2648792  48.0751848
   5.8317615  62.6008940  71.1510038   6.4186432  63.3518982  71.2392664
   4.9799110  62.9855680  70.9445763  24.3306830  15.1438140  90.3287315
  23.4869196  14.6918392  90.3247833  24.8086932  14.7522830  91.0597801
  50.6521227  10.5257129  65.3182220  51.0218527  10.9348297  66.1006260
  50.5659106  11.2433528  64.6906900  86.5206146  93.7541962  73.2750940
  85.7886982  94.2532539  72.9124975  87.2239304  93.8609600  72.6346445
  15.1128199   3.0417251  56.8066120  15.5737975   2.4785613  57.4283648
  14.5012095   3.5433196  57.3456621  98.7984943  94.8919964  79.8803997
  98.9464951  94.0364075  80.2832603  98.3041286  95.3833485  80.5364609
  94.4437695  98.4517574  78.4963083  94.7922897  99.3257713  78.6720276
  93.6877632  98.3739281  79.0782166  29.2763712   0.7251262  59.0512896
  29.3323615  -0.1901818  58.7768745  29.3541911   1.2241458  58.2381725
  14.9064304 103.4804249  69.4998693  15.4335453 102.6816559  69.4811344
  14.3575241 103.3869457  70.2784586  68.0868867  17.1937735   0.8696568
  68.3857778  16.3839847   0.4559719  68.6958936  17.8621227   0.5555641
 109.2711926  91.5616131  69.0177441 109.5481491  91.3936043  68.1170177
 108.3965015  91.9409370  68.9325666  60.6419233  39.7536356  10.4709541
  61.5051702  39.5317251  10.1219666  60.4524186  39.0585405  11.1011517
   6.9479277   6.7334461  70.1275921   7.0588019   7.6825046  70.0706863
   6.4676001   6.5969562  70.9442234  36.8355277  27.3059177  91.2483883
  36.9194415  27.2535324  90.2963161  35.9027007  27.4592971  91.3985348
  72.1762517  63.2137091   6.0431778  72.3332647  64.0486891   6.4840614
  71.3762525  63.3566267   5.5374062  68.1821206  52.9201586   1.4583218
  68.9085153  53.4629042   1.1517059  68.5919812  52.2742540   2.0336926
  66.2006238  65.1440412  22.3736775  65.9095529  65.4402430  21.5112507
  66.2488988  64.1912252  22.2959625 108.1484890  71.7433262  63.6276007
 108.8216591  71.5001869  62.9920244 108.1526852  72.7005148  63.6265850
  22.8098251  97.9713058  79.6079922  22.1794178  97.2685528  79.4500351
  22.5657131  98.3242035  80.4636192  50.8111384   0.7945442  78.0283451
  49.9248507   0.7719039  77.6674986  51.0682967   1.7149639  77.9743099
   4.4858505  86.3575840  47.1700907   4.2281105  85.4700756  46.9208002
   4.0200378  86.5208149  47.9902172  92.5328592  65.3763372   5.5218041
  92.9299978  65.2271254   6.3798535  91.7407182  64.8390085   5.5278122
 101.4185143   6.9606399  13.4007978 101.7494679   7.6400375  12.8133285
 100.4953433   6.8690109  13.1650090  53.0436948  47.3879702  38.6494553
  53.0746320  46.5436155  39.0992748  53.7960962  47.8699381  38.9927208
   1.7039634  81.7827702  74.1720152   1.7747451  82.6767445  74.5067310
   2.5954868  81.4376736  74.2202520  46.6729643  23.6760616  25.5002975
  47.3783781  24.1260719  25.0354099  46.3346960  23.0428218  24.8671985
 103.1181335  90.2921295  70.8748913 103.1105518  90.6562328  71.7601109
 102.9657555  89.3554401  70.9998703  72.5670147  99.7805882  88.5205173
  72.2982931 100.6739712  88.7347221  73.4910250  99.8588085  88.2832050
  96.2260246  40.2592468  77.0419836  97.0105076  40.2523804  77.5904083
  95.5244064  39.9671531  77.6239204  63.2129434   7.1390516   2.4497711
  62.4695829   6.8097765   2.9549610  63.1916478   8.0867845   2.5823414
  98.7825489 100.9589386  59.8255825  97.9862785 100.6132698  59.4222212
  99.4922352 100.4613590  59.4193840 105.7543755  60.1914167  74.0723515
 105.3855228  59.9664116  73.2182121 106.4191055  60.8526134  73.8795280
   2.3332359  75.7458353  92.2747326   1.6616680  75.4536819  91.6583920
   2.7521469  76.4877939  91.8385601 107.8901768 102.2318840  82.0235825
 107.2627735 101.9597530  82.6933193 108.3528709 102.9724503  82.4156380
  73.4298372  62.6895380  56.0498667  73.5452414  63.4874249  56.5658998
  74.1874743  62.1485949  56.2725687  36.8580917  17.3065121   0.6596577
  35.9308818  17.0734722   0.6126702  36.9349101  18.0934364   0.1201451
   4.2059853  17.7156257  90.9258080   3.5193016  17.5276088  91.5656090
   3.9700654  18.5704421  90.5654621  53.0632975   2.6852798  71.8789148
  52.6503279   1.9230842  71.4730120  52.6719668   3.4359836  71.4322186
  80.1141548 106.7320347  72.7525234  81.0090733 106.3927937  72.7688694
  79.9546719 106.9427967  71.8325377  97.6175880 103.8441372  84.0470123
  97.6579762 104.4077206  83.2743740  96.8131256 104.1075802  84.4938564
  11.5924361  14.6829318  72.9432297  10.6557848  14.8176097  72.7991056
  11.6971209  13.7317180  72.9647732 101.3639978  49.1372473  23.8860714
 100.9731344  48.3127386  23.5968506 101.9101194  49.4144518  23.1504452
  26.7687942  86.9560719  92.0297337  26.9791938  86.0243320  92.0916271
  27.6200248  87.3937225  92.0204353  52.3730233  60.9029753  14.1337788
  53.3008436  60.7327349  14.2962849  52.2165540  60.5578501  13.2547867
  91.8700790  89.9350262  77.6490450  91.5665627  90.2820396  78.4879065
  91.6567516  90.6198788  77.0152473  21.1483337  84.4221115  61.9131374
  21.7520382  83.9304829  61.3563013  20.2954437  84.3193150  61.4909315
  17.5981807  72.1233965  42.5404215  16.9995736  72.8305984  42.7807617
  17.3813485  71.9252873  41.6293955 108.3747432 106.2860929  56.9972849
 108.8807747 105.7901163  57.6408434 107.4635122 106.0589935  57.1825266
  55.4824924 106.5466626   4.5602905  55.9225750 107.3305114   4.2314446
  56.1953545 105.9555228   4.8023903 110.6223581  85.6756545  59.6947527
 110.5798934  86.0542083  58.8166189 110.4526064  86.4124942  60.2816820
  91.8686486  41.6458220   0.0351441  92.4140073  41.7717404   0.8116543
  92.4814559  41.6952951  -0.6985081  97.9543731  98.5663659  71.5003729
  97.8193781  99.1994179  70.7952118  97.0721529  98.3600730  71.8091869
  36.2455082   4.3740880  70.9280491  35.7037187   3.6847970  71.3122034
  35.6999898   4.7506195  70.2374935  21.0064887 103.5104609  48.4093380
  21.1113977 102.5641454  48.3107853  21.0334157 103.6572439  49.3548346
  34.0294385   6.4679515  42.4241114  33.6944151   6.5435827  43.3175707
  34.7677088   7.0764017  42.3928356  23.6189914   4.2373660  83.4012604
  23.1810093   4.0136179  84.2224407  24.3269682   4.8271614  83.6603832
 107.4473999  92.3596848  77.2573423 107.1540043  91.5085793  77.5825691
 107.2092054  92.9758585  77.9500389  79.2557491  89.9625493  84.3326569
  78.3914126  89.5887054  84.5041084  79.1818771  90.3457499  83.4586334
  20.7356715  10.2821386  61.9867897  21.3642526  10.2731681  62.7086163
  21.0080552  11.0199153  61.4411497  23.4096908  90.5084980  72.3245573
  22.5795840  90.5377210  71.8488455  23.4338378  91.3302506  72.8148317
  26.6196155  68.3230877  64.8681927  26.4612674  68.0877996  63.9539719
  26.4275312  69.2598320  64.9111509  29.7515750   7.6811576  39.5525718
  29.7779298   6.9227940  38.9691138  30.1628232   7.3756742  40.3611422
  25.7288598  81.6880060  36.7991853  25.3595304  82.2654868  36.1310935
  26.6758489  81.7555237  36.6771936  17.9257058  92.0375717  64.0678549
  17.8563022  92.9922522  64.0675402  18.3012294  91.8250096  64.9222755
  55.8377303  85.3907878   2.5364124  55.1959301  86.0299356   2.2268784
  55.9010721  84.7518713   1.8264877   1.0200833  97.9599989  58.9586115
   0.6393599  98.7034953  58.4911776   0.2795123  97.3766411  59.1243839
  60.5641556   9.9330473  73.2814121  61.3529921   9.4583410  73.5433769
  59.8670006   9.5522082  73.8154221  13.0187500   0.6113407  56.2324190
  12.1495831   0.5639351  55.8342600  13.0391395   1.4665450  56.6618872
  78.9336491  64.1662855   1.2059605  78.9317418  63.9854212   2.1459210
  78.0436374  64.4639380   1.0175240 110.3478572 100.7534749  58.4139681
 111.2756202 100.6650830  58.6323166 110.2958677 101.5686119  57.9148865
 103.6265895 101.1975116  35.1965833 103.5870740 100.3171754  34.8228478
 102.9666064 101.6932971  34.7119689 107.4170543  74.4695957   5.1532280
 107.3829079  75.3992660   5.3785717 107.0607091  74.4249709   4.2659580
  68.6520434  49.6545459  10.5293762  69.5362759  49.9691413  10.7175171
  68.7057758  49.3072413   9.6390259  27.9516029  98.4445751  37.0903015
  27.9943608  97.7693964  36.4131498  27.2213220  98.1778652  37.6486850
  87.9819737  69.3281794  66.1477900  88.3289824  70.1182461  65.7335281
  87.1616874  69.6104265  66.5523863  58.8021755  11.2120247  41.9780350
  59.5563841  11.4441025  41.4362383  58.1082296  11.8045783  41.6889906
  97.8225420 104.0245113  77.9782772  97.0149753 103.5737631  77.7315140
  97.5281403 104.8506460  78.3617640  14.1070700  31.7206192  51.1593008
  13.3007824  31.7993355  51.6691399  14.1908419  32.5627661  50.7120848
  14.4151734  83.6222864  72.6216221  14.6719073  84.5405460  72.7059841
  15.0445413  83.2536030  72.0017815   3.6808061 104.4543234  67.3034906
   4.0620422 103.7053216  66.8453598   4.3647765 105.1235140  67.2790289
  92.5759730  94.4874240  58.7381935  92.8050087  95.3936184  58.9445591
  91.7804692  94.5557201  58.2102346   4.6119022  80.9953285  58.3333969
   4.8592519  80.2268530  57.8191042   3.8899087  81.3890744  57.8435850
  28.3037281   5.7841527  50.9449291  27.5458121   5.8925658  50.3704357
  28.9262700   5.2743602  50.4264879  88.8324807  70.5210305  73.9223862
  88.4282301  69.7822261  74.3773365  89.5973001  70.1446844  73.4868956
  76.4714170  62.7540774   0.8539402  75.6252361  62.3906310   1.1149227
  77.1154404  62.2162135   1.3145554  32.2988415  24.5133877  78.4364462
  32.2214913  24.8635197  79.3239450  32.1585035  23.5719180  78.5373163
  97.9922459  93.2593120  68.4303713  98.7734888  93.6156321  68.0073738
  97.6719472  93.9730061  68.9819860  10.4955148  92.0013285  74.4207716
  10.1365899  92.4571300  75.1821184  10.3604650  92.6079834  73.6927843
  94.4558737  98.2328237  67.3076344  94.9408958  99.0267975  67.0827103
  95.0359724  97.7584053  67.9031563  15.7730197  90.0448251  91.9920540
  16.5509748  90.0917042  92.5477695  16.0876464  90.2801204  91.1191940
  54.8821974   0.3115132  73.4038067  55.2935314   1.0972829  73.0438042
  54.2182302   0.6440407  74.0077972   4.6655893  84.7018171  69.4447660
   4.6213578  84.9784709  68.5294867   5.2475881  83.9419127  69.4374323
  22.9823589  89.6809984  83.7643719  23.5660409  89.0385080  84.1677952
  23.5543059  90.4135097  83.5351658  78.6387157  24.3806934  68.8430786
  78.6924934  24.9525142  68.0773354  78.9607906  24.9183297  69.5665741
  15.1723670  95.2426386  50.8783960  14.7268533  95.7883311  51.5264463
  14.8641967  95.5730570  50.0345421  82.0217849  79.4656975   9.2818367
  81.6475249  80.1689227   8.7511456  81.2975646  79.1709001   9.8339474
  34.8352098   3.7782085  52.0876408  35.6946540   3.9834857  52.4556732
  34.2147183   4.0390137  52.7682304  46.2132759  59.3994184  20.9164154
  45.9539641  60.1274444  20.3516400  46.5006364  59.8168201  21.7284691
   0.2483391 105.1674152  52.5303698   0.1133560 105.8265532  51.8495226
   1.1959409 105.1524591  52.6647472  72.6338581  84.8285747  74.6793652
  73.2411770  84.1271568  74.4439697  72.4990383  85.3121949  73.8644028
  68.0090237  49.3256981   2.3991406  68.6448646  49.9214484   2.7954018
  68.5418034  48.6391292   1.9978916  43.2177782   5.9659654  61.0558939
  43.3401203   5.0705993  60.7403231  43.2790470   6.5076858  60.2691174
   9.6605586 103.3263556  50.6634092   9.2599296 102.5334889  51.0199070
   9.2930841 104.0373025  51.1885262  80.8307616  97.9858870  31.8290520
  81.5923879  97.8955818  32.4017668  80.3960816  98.7828923  32.1324778
  15.6759118  88.0085755  61.8843746  16.2509393  88.7592137  62.0331001
  16.2415551  87.2458995  62.0052385  15.1014899 102.9090521  58.8201094
  14.3891477 102.3789174  58.4626770  15.5572080 103.2485009  58.0498266
  16.5695905  90.6935108  84.2066669  16.7906856  91.3585091  83.5546494
  15.6142568  90.7192040  84.2605400  57.0710754  10.2567089  47.0168018
  57.2164249   9.5963907  47.6943588  57.5088167  11.0406530  47.3485279
  12.7594473  91.0968096  18.2322704  12.3888876  90.8876116  17.3748600
  12.0118430  91.0695703  18.8294041  90.0521479  76.4274097  66.1861467
  89.7220502  75.7194949  65.6328630  90.8753643  76.0908056  66.5400457
   8.8145398 102.1909619  48.1449986   9.4940280 102.4524737  48.7663984
   8.2807349 101.5585089  48.6259222  26.7688012  16.3725710  57.9111004
  25.8877516  16.3968122  58.2844591  26.6315150  16.4571917  56.9675827
  46.7795467  16.5912008  63.8670444  47.3312950  17.3139167  63.5678959
  45.8918524  16.8486536  63.6181402  15.0628734  22.6948643  72.5423336
  14.2562687  22.9251838  72.0812750  15.6578517  23.4227514  72.3623037
 107.0933438  86.0826857  11.0491287 106.8576527  86.5669448  11.8404400
 107.2446013  86.7600448  10.3899300  19.1734361 106.4358171  68.1226206
  18.9758634 105.5114040  68.2731390  18.3301210 106.8791131  68.2150269
  40.1259565   8.2349008  79.7424650  39.4751215   8.9364856  79.7218084
  40.3491735   8.0881363  78.8232994  56.3306713  10.6313181  64.0123177
  55.7920742  10.0414729  64.5397902  56.9993210  10.0649679  63.6271048
  28.3043765  88.3608842  35.1787233  27.7375411  87.5911761  35.1289439
  28.0385541  88.9025546  34.4356441  84.1125808  92.5270212  66.0436440
  83.6066274  91.7555857  65.7884407  83.6437098  92.8818501  66.7989540
   2.1073317  76.9091654  82.8920650   2.7013015  77.4006510  82.3247337
   1.2649583  77.3542905  82.7998543  63.6405945  26.3807249  65.0868464
  64.0495968  27.0324898  64.5175028  62.7036285  26.4609742  64.9082994
  57.3911858   7.6535130  68.0731726  57.9923296   7.2202718  67.4672365
  56.7632246   6.9728398  68.3152103  33.4626460  20.4269481  63.5414267
  33.1724095  21.1039066  62.9300976  33.8007164  20.9126425  64.2937803
  95.9169934  99.9279690  44.8023224  96.6824052  99.8988170  45.3763676
  95.2301166 100.3235937  45.3388977 108.7705565  40.4073842   7.1986878
 109.6253062  40.1181896   7.5180638 108.5439444  39.7761340   6.5157520
  31.1459874  85.2428914  63.3248854  31.9462823  85.0968791  63.8293076
  31.1187171  86.1898256  63.1877565  22.7692651  87.3612953  62.7466154
  21.9694661  86.8600190  62.5876331  22.4604844  88.2331563  62.9930782
  69.3812895  16.5704691  55.3431511  68.9162159  15.9143507  55.8622313
  70.2130508  16.6924536  55.8008909   4.0821981 104.1720808  88.2634544
   3.2411050 103.7537718  88.0795956   3.9659738 104.5757986  89.1235352
  82.0366429  12.5640833  72.4281073  82.1810077  13.1820118  71.7114782
  81.1565898  12.2204125  72.2743988  13.3738043  73.5182626   7.0101177
  13.5308459  72.5743754   7.0355332  14.0529921  73.8584740   6.4277279
  16.1762750  16.7342699  68.8822937  15.9710562  17.6567805  68.7303352
  16.4806116  16.7028558  69.7892761  75.8530879  98.0847896  88.3544827
  76.4551922  97.3418856  88.3121014  75.2204792  97.8421075  89.0305996
   3.4300803  98.7831605  59.5751143   2.6090669  98.3358676  59.3699360
   4.0979003  98.2871068  59.1016388  21.9273615  60.1314878  54.4019890
  22.3882484  60.9672260  54.4751692  21.5945220  60.1192999  53.5046005
  24.0056040  53.3262431   4.8231423  23.8140967  54.2370145   4.5994198
  23.2035544  52.8520235   4.6039211  43.0566645   8.5884237  56.4933968
  43.1282949   9.4147909  56.0156775  43.3024693   7.9199767  55.8538723
  59.9481869  22.7671576  29.1121244  60.6883001  22.4575043  28.5900354
  60.3500271  23.2477307  29.8358679  70.7353926  15.1703322  50.4421377
  70.9830046  15.0432479  51.3579845  71.5684843  15.2522278  49.9779367
  91.3553093  91.7253018  80.1307583  91.1708436  92.6631618  80.1819801
  90.7670233  91.3300050  80.7741070  14.2371034 103.0204961  64.6248055
  15.1519012 102.7998746  64.4495678  13.7404346 102.5049466  63.9893866
  44.8001003  24.9134302  72.0511866  45.4956341  24.2653990  71.9392872
  45.2612162  25.7265401  72.2572470  10.7266810  32.8374488   1.8446171
  11.2105658  33.1243618   1.0701668  10.3438761  33.6400886   2.1988308
  16.4977168  80.4178548  48.7933683  16.2464570  80.2442933  49.7005510
  17.0733451  79.6893287  48.5607004  39.4886588  94.3137622  81.6080475
  38.6426019  94.0067781  81.9338989  40.0638341  94.2870117  82.3726940
  46.8682289   2.0331052  34.3109822  47.3697233   2.2797728  33.5338783
  47.5311089   1.7799948  34.9534440  37.8136802  15.2900767  79.6318579
  37.3273706  16.0864365  79.4184494  37.5271988  14.6521020  78.9782953
   6.9149827  84.5059467  51.9012928   5.9844207  84.6941496  52.0232296
   7.3227214  85.3665352  51.8045139  51.1190748  13.5668051  77.5301075
  50.8642292  14.4165206  77.8896475  50.3099346  13.0554104  77.5275326
  55.1914263  20.8176684  50.6025696  55.1950502  19.8672748  50.7164574
  55.9582806  21.1201191  51.0890770 111.5009306  79.2626668  77.6150465
 110.6028268  79.3592072  77.2983074 112.0381162  79.6839381  76.9440794
  35.8178854  20.2219963  77.3536539  35.4276848  19.6630073  76.6817141
  36.7084479  20.3843904  77.0425892  22.1198010  16.0015881  77.3278379
  21.6308117  16.4943016  77.9868937  22.6905823  15.4243457  77.8350163
 100.1897193  43.1328399   0.2558148 100.1834870  42.2335429   0.5836308
 100.6768704  43.0845649  -0.5667293  76.6814041   5.5573213  88.7223148
  77.1693039   5.0178796  88.1000710  75.7977867   5.6041986  88.3572769
  90.4906131  64.1955669   2.7580177  90.1295138  63.3095075   2.7308762
  90.3124953  64.4996340   3.6479866 110.5207346  90.3181363  55.5615711
 110.1817772  91.1912823  55.3641987 110.5919740  89.8903335  54.7082615
  66.6710805  79.0768910  64.7613144  65.8257627  78.8823581  64.3565607
  67.0691442  78.2189608  64.9087334  36.7512059  28.2028866  57.2671366
  37.6227927  27.8725386  57.4849367  36.8270922  29.1532636  57.3523235
  24.9048280  91.3409973  61.8141270  24.2660283  91.0586143  62.4686718
  25.6464242  91.6630102  62.3265505  25.8643722  96.0951031  83.9102936
  25.8289813  95.8707357  82.9804325  25.4935979  95.3328121  84.3548870
  48.1184864  13.8732922  44.3847322  47.6436520  13.0446362  44.3207455
  49.0353012  13.6352539  44.2468309  14.0777206  74.7834492  67.5675678
  14.7072553  74.1004420  67.3364305  13.9553355  75.2801037  66.7584991
 103.5684297  87.3588420  86.3286114 104.3534110  87.1312678  85.8303738
 103.8497422  87.3342157  87.2432137  68.9376450  15.8337164  47.2885609
  68.1538534  15.8112836  47.8375626  69.1872597  16.7574978  47.2650814
  28.4855580  22.0378208  65.2535200  28.5235977  21.9586825  64.3003559
  27.8170085  21.4066458  65.5197716  11.7993926 105.3670699  54.5603561
  12.3253059 105.7883639  53.8805342  11.4003801 106.0935645  55.0391340
   6.0015535  98.9301825  54.7801590   5.9049462  99.7656102  55.2372789
   5.2018212  98.8474995  54.2607164 112.2910071  36.3813300   1.7115128
 112.3473788  37.0129879   0.9945309 113.1787539  36.3431425   2.0674336
 108.4416200  34.5181842   7.2793972 109.3414594  34.2320986   7.4364960
 108.1706668  34.0377147   6.4971172  44.0424298  81.1123205  50.3875017
  44.3817567  80.6204701  51.1352825  43.1149720  80.8788467  50.3482103
   2.6674365 100.7949645  85.3511524   3.3501624 100.1576382  85.5607605
   2.4807834 100.6496955  84.4236374  46.5409327   7.9665315  37.5283170
  46.5173101   8.8949311  37.2964835  45.6745481   7.7889836  37.8944993
  61.4935636 107.0140576  35.7588696  61.9820356 106.2746848  35.3969932
  60.6200933 106.9347237  35.3754616   7.5444221  98.7692422  61.9125271
   7.4655961  99.1736985  61.0485601   6.6540860  98.7793565  62.2638512
  64.6807861  44.9161100  36.1892390  65.5548048  45.1296186  35.8625293
  64.5189714  44.0260649  35.8764100  46.9671010  89.5798815  35.0436497
  46.9675492  89.7161067  35.9911060  47.8030728  89.9414409  34.7492933
  24.3433237  17.3383808  18.1440234  24.9769688  16.7358577  17.7545464
  24.6104360  18.2024407  17.8305221 101.6519357  85.3833015   1.3368427
 101.8904210  85.5531104   0.4255116 100.7357360  85.6533892   1.3989746
  61.4672470   5.1861501  22.9840064  61.6205072   4.2883885  23.2785702
  60.5975437   5.1621068  22.5849223  37.3937750  11.1481214  84.5852852
  38.0065060  11.6599560  85.1133251  37.3932242  11.5813971  83.7317657
  99.9694777  41.1296303   6.2170040  99.5642520  41.4549716   7.0208561
  99.6180583  40.2454252   6.1125099  54.7322559  33.6070037  44.6165848
  53.8753748  33.4548163  44.2180538  54.5994234  34.3626952  45.1888752
  57.9795074  14.2128766  80.0383568  57.4582481  13.7900186  79.3559265
  57.3635435  14.7938025  80.4848385  68.1538343  17.5990391  61.9014120
  67.3718357  17.5277102  61.3540363  68.0128908  16.9647157  62.6042652
  86.6038227  17.7978909  88.1856060  86.0853291  18.1278300  88.9194584
  86.0721207  17.0940232  87.8139973  30.6523132  81.4731956  48.3880568
  31.2524127  80.7388568  48.2582045  30.6285428  81.9159699  47.5397539
  98.2524774  65.1843215  81.7148304  98.3979747  64.2385293  81.6916752
  97.9061840  65.3519917  82.5913048  93.4674358  28.7533522  76.3580608
  93.8452816  27.8747678  76.3974571  93.1781387  28.9300227  77.2532272
  78.4563065  27.6156044  68.5153151  77.5535488  27.8444934  68.2942438
  78.9651442  28.3904648  68.2767630  45.7713556  13.5772491  78.6752558
  44.9868202  13.2635093  78.2254696  46.2036180  14.1435564  78.0359745
  32.6868390 101.4807743  41.3089275  31.8345594 101.0783214  41.4759064
  33.2114457 101.2586123  42.0781231  14.5726585  78.2158471  71.2321186
  14.1457509  78.7531043  70.5647898  14.5676278  77.3311759  70.8666563
  64.2328621  49.0740232  26.7539704  65.1132584  48.9661281  26.3941109
  64.3509699  49.0033321  27.7012169  58.8113499  14.3868256  86.6166115
  59.5178270  15.0278437  86.6954422  58.7886190  14.1688168  85.6848431
   2.6320361 101.1566842  48.4255457   3.2267856 100.6833155  47.8437996
   3.0542373 101.1168641  49.2836809  21.8230771 101.7778630  77.5602770
  22.1374034 102.6804489  77.6128960  22.2201871 101.3416213  78.3140898
  16.3435054  35.7253003  51.6681528  15.8032358  35.2900338  51.0086966
  15.8480108  36.5095448  51.9041157  40.5658150  21.9903159  83.1192493
  40.5535650  21.0529947  82.9255676  40.5341911  22.0378852  84.0747452
   5.1791572 103.0879459  43.7570953   4.5043134 102.6373500  43.2493782
   5.2905082 102.5481588  44.5396948 101.1221314  50.0936399   4.9657547
 101.4060355  49.4056956   5.5677139 100.8668042  49.6258037   4.1706574
  88.0874778  62.5328149  15.0391876  89.0433265  62.5394083  14.9887860
  87.8789712  63.1750078  15.7176792  99.8415042  52.0981219   6.8208038
 100.3667117  52.7618767   7.2678101 100.4625941  51.6456379   6.2500679
  40.4374933  24.5939040  74.6801090  40.3311920  24.0226674  75.4407787
  40.2299786  25.4692650  75.0070810  82.7222061   3.8094682  89.4066620
  83.0278206   3.8174781  90.3137302  82.6149750   4.7337011  89.1818810
  46.1225271   3.3341494  62.7002239  46.6821575   2.5855970  62.9068995
  45.2718735   3.1083742  63.0765867  76.6869020   9.3956137  83.2184601
  76.6709805  10.3328192  83.4124279  75.9183836   9.0447962  83.6685085
  40.5592441  94.2556525  29.7928596  41.4644860  94.3931938  29.5138454
  40.5436086  93.3564175  30.1205230  34.8282409  41.6028595  47.7668810
  34.4764972  42.3864460  47.3443794  34.9518800  41.8586349  48.6809492
  58.7475205   5.3978379   2.2768414  57.9065586   4.9741013   2.1051991
  58.5298062   6.1455042   2.8334534  41.8676090  10.2527416  73.0271339
  41.9612551  11.1426473  72.6872396  41.5193129   9.7504246  72.2905207
  45.9680986  15.3340125  80.8709526  45.0155354  15.3929639  80.9443378
  46.1156893  14.8102117  80.0834942  62.9264975  26.6955328  88.6802864
  62.8559589  26.5997314  87.7305126  63.8592243  26.5832591  88.8637161
  14.3750060  28.7614250  90.9343338  14.8547637  29.5893669  90.9103489
  14.8270571  28.2418346  91.5990925  67.0130157  31.0109639  72.2984409
  66.2327003  31.0390043  72.8521156  66.6802502  30.8000565  71.4260769
  67.8875303  27.9254985  71.7444801  68.0843067  27.0677638  71.3679123
  68.2609653  28.5510325  71.1236095  32.4412825  59.8072846  18.2283318
  31.7793753  60.2744801  18.7380802  32.3520949  60.1573463  17.3419201
  49.4954348   6.2334436  71.1723423  48.8220692   6.1502683  71.8475437
  49.8488569   7.1146768  71.2938118  16.1029290 103.3410434  43.5508680
  15.9820604 104.1037542  42.9852772  15.4316615 102.7216873  43.2644558
   3.2363176  62.8687811  65.6725550   3.7434434  62.2285843  66.1717558
   3.8345622  63.1663180  64.9871254  32.9334974   2.2557317  77.0604181
  33.4361172   2.0878854  76.2632751  33.5776496   2.5923681  77.6832962
  31.1619735  22.8465104  85.5489445  31.9892025  22.4431229  85.8120155
  30.6168413  22.1123719  85.2659225  10.8135175  98.9316261  81.3279629
  10.4788493  99.2776812  82.1552944  11.6458272  98.5196639  81.5598583
 103.3506442  71.6593976   2.2752773 103.3877374  72.3304553   2.9568493
 104.1665507  71.1693151   2.3770344  47.5912333  12.2307956  66.6347647
  47.0956612  11.4184475  66.5311670  47.4900198  12.6816642  65.7964897
  26.6114879  33.2552767  73.4201336  27.3496723  33.8422179  73.5838842
  26.9959736  32.3787332  73.4286737  45.5288839  28.8707709  51.6962004
  45.6931973  29.1826391  52.5861263  45.2477312  29.6503997  51.2172794
   3.2809734  96.7462659  73.4652472   2.3633432  96.8080652  73.1999779
   3.3044576  96.0102821  74.0768051  95.7177687  89.3472035   4.8035443
  96.5449382  88.9356453   4.5532620  95.9713174  90.2018650   5.1521122
  89.8226405  50.5946840  12.5428784  89.7920991  50.9639667  11.6603100
  89.6007300  49.6711935  12.4239170  11.0015776  16.9893105  15.0802242
  11.3390257  17.8843172  15.1165306  11.6922286  16.4904506  14.6439087
  12.5770520  86.0007644  51.1351109  12.5560712  85.0872231  50.8500910
  11.7817639  86.1071444  51.6570616  81.6134644  20.6807184  87.3589993
  81.7673874  21.5538335  86.9981575  80.6621075  20.6222105  87.4469376
  66.0155058   5.0202930  80.1818085  65.2903318   4.5223588  79.8044252
  65.5930471   5.7355720  80.6573391  19.6116412  34.3632030  73.9533138
  20.4796791  34.6935153  74.1849136  19.0278625  34.7427487  74.6101093
  59.6487713  10.7085323  78.2561493  58.8561726  10.6459355  77.7231359
  59.7906971  11.6488981  78.3647871  27.2170925  24.2164826  66.8093252
  27.7317905  23.4886980  66.4605427  26.5367055  23.7976789  67.3364925
  11.9081258 101.8061424  66.5743160  12.4549436 101.0207868  66.5953398
  12.2192239 102.2942559  65.8119535  33.2882977   7.6355791  57.9548740
  33.5744810   7.1334845  58.7179184  32.4569988   7.2340524  57.7019930
  51.8016290 102.0969782  43.5301733  51.3691663 102.5286049  42.7933455
  51.1787652 102.1752906  44.2527628  60.6055832  19.7721541  80.1309013
  61.1060905  18.9829803  80.3380871  60.7296753  19.8942578  79.1896677
  65.8472109   0.5642556  79.2042542  65.7586241   0.7882734  78.2778645
  66.6947556   0.1234348  79.2640829  49.7184706  12.5455689  50.8552456
  50.4697180  12.2772014  51.3842440  50.1044130  12.9720461  50.0901318
   3.2255172  63.5609961   4.3589461   3.0361270  63.6681033   5.2910894
   2.5875997  62.9140378   4.0577227  79.1867287  92.9576970  55.2625751
  78.9237682  93.8620198  55.4337072  80.1346052  92.9545928  55.3958130
  41.0084343   1.3490616  61.7633200  40.1807022   0.9476052  62.0277548
  41.4460421   0.6751982  61.2430906 101.0648320  85.4448009  87.9702377
 101.9723985  85.4199672  88.2734489 100.9593580  84.6393848  87.4638653
  37.7045345  12.4065447  53.1368876  37.7720380  12.5784576  54.0760994
  37.6048470  11.4566398  53.0738258  75.0385189   3.3728877  81.4486694
  74.6667433   2.9085004  80.6987667  75.7988024   3.8327581  81.0926914
  11.2957287  25.7455969  77.5595474  10.9058511  26.2993526  78.2359982
  12.1921635  25.5958366  77.8598976 100.4892228  96.5397430  63.3434153
 101.0951397  96.8541390  64.0144205 100.2407429  97.3261977  62.8576326
  24.7787046 103.1388400  48.4089661  24.4524669 103.5389400  49.2150211
  24.5435714 103.7609730  47.7205658  55.5244398  44.0326118  74.2011595
  54.8976707  43.3241034  74.3474579  56.0566187  43.7332058  73.4640217
  31.7480992  92.6668609  42.7284050  30.8943223  92.2490931  42.6154041
  32.0862722  92.3031819  43.5467052   4.4799852  95.2758861  62.6015902
   5.1391791  94.6982468  62.2168541   3.9662027  95.5837644  61.8549490
  42.4688406  44.3815429  16.0163700  43.3031751  43.9128531  16.0375321
  42.6705984  45.2460183  16.3744366   2.7275561  94.7938502  42.1188116
   2.2159790  95.5866922  42.2798252   2.2838163  94.3672324  41.3857889
  57.2020864  22.9738855  87.6467800  56.6285133  22.2333145  87.4498081
  56.9729376  23.2227826  88.5422039  93.9084325 102.5557638  85.8290195
  94.7042785 102.0654929  86.0351658  93.5195766 102.0827976  85.0932693
  35.4350400   7.2260714  48.6992359  35.6731200   6.4337546  48.2177973
  34.5038295   7.1180761  48.8926649  92.1411897  59.3471528  19.4903290
  92.3359347  60.2016450  19.1054260  91.3020421  59.4700135  19.9341404
  75.1270367  77.6010234   1.9940388  75.9206320  77.3323305   2.4569046
  75.3649927  77.5613983   1.0677349  96.2653447   6.2394698  12.2296250
  97.1814347   6.2371953  11.9521343  95.7754231   6.0087950  11.4403259
   5.5362033  89.9193717  46.1564016   5.6309222  89.5752144  45.2682495
   4.6469211  89.6762479  46.4139032  79.8536921  24.2342877  61.7156792
  80.3819847  24.9875975  61.4517403  79.9876738  23.5918450  61.0188627
  40.3654194   0.0505687  70.1295853  40.0505733  -0.3105021  69.3008947
  40.6626940   0.9332204  69.9087143  58.0039501  31.4011335  82.3197651
  57.0796394  31.5997458  82.4695492  58.1915283  31.7705536  81.4568806
  74.8929071  24.6254134  72.3529959  75.4886675  24.4784665  71.6183472
  74.3324804  23.8495350  72.3657846  41.0542965   0.6627004  17.6050782
  40.6994486   1.4266057  18.0597889  42.0035791   0.7559071  17.6851130
  34.8297215  19.1270494  71.5695763  34.9199390  19.9364066  72.0726013
  33.9523506  19.1773689  71.1902046  22.7739763  16.2216234  67.5793457
  22.3926878  15.5960536  68.1953907  23.2335472  16.8530440  68.1328201
   4.3985938  90.6808961  70.4807329   3.6608218  90.7381690  71.0878944
   4.6925544  91.5856815  70.3749895  18.9957964  11.0756409  80.3101444
  18.3715630  11.6513968  79.8684788  18.9865720  11.3668740  81.2219143
  36.8074989 106.0712947  73.4829664  36.2130260 106.6981405  73.0707788
  37.3264312 105.7214517  72.7587080  85.9358978  29.5312047  48.2655048
  85.4108620  29.8129654  47.5163889  85.3195477  29.5156765  48.9976931
  18.6362456 102.7837295  72.2437429  17.8410625 103.2849634  72.4245071
  18.9217948 102.4699063  73.1017685   1.2446008   8.3776659  55.7190657
   0.5634832   8.9096689  56.1305046   1.6073920   8.9403063  55.0349236
 100.2707864  71.3410444   2.5916874  99.6200324  70.9045632   3.1414425
 101.1130906  71.0741909   2.9598438  37.3993564  16.1829114  33.9801908
  37.9274988  15.8906901  34.7230935  36.5358996  16.3580859  34.3543410
  43.8960790 102.0332155  38.1908298  43.1444120 102.6173977  38.2905960
  44.5340966 102.5463823  37.6950216  84.3027782  20.0716877  64.3554258
  84.0137482  19.7937107  63.4862757  84.6867657  20.9371257  64.2147160
  55.0088835  11.6409492  68.5692978  55.6994438  11.0155749  68.7889957
  55.2581406  12.4436700  69.0272760  86.2598754  62.6817234   5.6025040
  86.5208627  63.5130985   5.9986508  85.5459596  62.3660882   6.1565220
  49.1570282  21.9028234  67.7334309  49.4359589  22.7799296  67.9963303
  48.2368231  22.0066738  67.4912214  74.8164884  82.5997520  87.8829384
  74.3690015  82.8289223  88.6974812  74.1868655  82.0570875  87.4082565
  45.8839083  31.7272019  88.5602760  45.7053375  32.4755025  89.1298294
  46.5010738  31.1900115  89.0570259  41.3807344  10.3189802  64.7568512
  41.7249155  10.7952201  65.5124760  41.8161297  10.7180643  64.0035963
 112.6898549  95.2514053  89.5050335 113.0824707  94.8155451  88.7486458
 113.0751083  94.8104156  90.2622223  99.3823338  23.0378938  40.9179306
  98.7043571  23.6144066  41.2703657  99.4841957  22.3548412  41.5807199
  29.2505002  17.4896419  57.6904392  29.4204664  18.4199488  57.8383303
  28.3376360  17.3684621  57.9516459  51.9200815  33.4031923   1.4078533
  52.8739882  33.3516796   1.3475048  51.7328299  34.3411059   1.4463913
  57.1401548  15.6371367  56.8010759  57.1324396  16.0397065  57.6694679
  56.5806675  14.8655570  56.8897867  65.9671450  38.5367346  73.3751202
  66.4096642  39.1771007  72.8180361  65.5152607  39.0640664  74.0338707
  36.8922925   2.4813278  61.0629272  36.1103368   2.2969382  61.5832901
  36.8170667   3.4086561  60.8379078   9.8113774 106.8147010  66.9388151
   9.3807410 106.9324562  67.7855253   9.3337917 106.0956579  66.5251493
  20.0049973  26.2261915  59.9570656  19.7470987  26.4176631  59.0553665
  20.6354737  26.9121289  60.1766491 109.0097714  68.4146984   1.2595093
 108.4521151  68.1931813   2.0052921 108.9231110  69.3636782   1.1691773
  30.1402091 104.0374089  43.3089542  29.7600459 104.6912534  43.8956356
  30.9107732 103.7152246  43.7765646  54.4998550  31.8026185  56.6062164
  55.2277327  32.4151134  56.5000105  53.7162018  32.3380423  56.4819527
  56.9048977  12.7530253  60.9105206  56.7310095  12.1316707  60.2034760
  57.8468418  12.6822472  61.0653162  39.6847844  15.6524885  90.1814842
  40.2526283  15.9717143  90.8828259  39.3588924  16.4462101  89.7571850
  50.3664160   0.0707904  67.1241570  49.4410276  -0.0757605  66.9281769
  50.4163742   0.9954155  67.3666525  30.5967689  26.3881755  66.3004971
  29.8629355  26.3274121  66.9120741  31.0873103  25.5770826  66.4336443
  45.4445648  23.3159304  82.3863983  45.6367159  22.4010634  82.5921440
  44.5261765  23.3129597  82.1166134  56.8589020   4.8186263  76.1428642
  57.1837091   5.0698292  77.0075226  57.6473999   4.7283447  75.6077480
  91.7655135  54.9602693   4.2405331  92.2944880  54.6012878   4.9529564
  92.0457078  55.8728602   4.1705334 107.7192832  31.1090357  16.3410961
 107.8601743  32.0449550  16.4840519 108.5511685  30.7019169  16.5828621
  71.6893291  15.8916652  61.9326115  71.1742496  16.6983581  61.9195509
  72.0788336  15.8420372  61.0596514  71.1892987  44.6163328  24.1583264
  71.5028597  45.4291768  23.7618458  71.8716455  43.9747430  23.9608490
  15.3799485  97.4905253  79.3558073  16.1568593  97.4787021  78.7967920
  15.6444835  97.9983926  80.1228333  53.0872488   5.4683673  65.7461166
  52.7561474   5.7098311  64.8810720  52.5572252   5.9804171  66.3569450
  76.5983915   8.9759988  33.3036590  76.7047834   9.6883017  33.9341640
  77.4890423   8.7762487  33.0154252  99.5863486  83.2611425  25.0237953
 100.1742364  83.9103205  24.6375477  98.9799929  83.7746532  25.5575287
   5.6343558  28.6736472   4.8762619   6.1674120  29.4496043   5.0494015
   6.2164595  27.9368503   5.0620567  80.3473282  12.9362237  79.0086269
  81.0566998  12.2982931  78.9307356  79.5598364  12.4053454  79.1280365
  67.6213169  44.6782541  91.4652634  67.0708847  45.3425741  91.0506153
  67.4896765  43.8927174  90.9343815   0.6764530  97.0426804  72.5860834
   0.3465056  96.7593432  73.4387779  -0.0942875  97.3836268  72.1322727
  38.3517194  26.7719793  50.3591299  37.9013658  26.6066384  49.5308352
  39.2681074  26.5616083  50.1796627  99.5734311  68.5815580   8.1986153
 100.1063777  69.3738146   8.2659065 100.0753928  67.9147120   8.6672032
 112.8487430  23.5734797  76.5642262 112.7990816  23.8470268  75.6482887
 113.2482249  22.7041769  76.5332460  71.0359097  44.9832487  79.1087770
  71.6783619  44.8660135  79.8085880  70.2243567  45.2080011  79.5638561
 111.5317199 102.9415867  45.0181484 110.7243416 102.6128418  44.6228027
 112.2250745 102.6451856  44.4285393  89.4274616  21.2831140  51.6870975
  89.6324062  22.1673584  51.3832188  89.5558739  21.3198113  52.6349354
  14.3516683 105.5538732  47.6622629  15.2435064 105.4882235  47.3208809
  14.1881704 106.4948679  47.7257395  68.7257147  29.0677500  77.5235271
  68.8287449  28.2936573  78.0770588  69.3272877  28.9218998  76.7934132
  73.8277483  28.1775355  50.5599308  74.3196440  27.3653698  50.4388714
  73.2157183  28.1987953  49.8242712  87.7384663  17.5417328  85.4198360
  87.0708370  17.8834391  84.8250771  87.2826481  17.4329746  86.2544823
  67.2635651   1.8175614  42.3035908  67.1255445   2.7281442  42.5643969
  68.1432056   1.8071856  41.9262838  48.8442039   0.9568518  89.2763138
  49.3340540   0.9028384  88.4557247  48.5491991   0.0608183  89.4385719
  48.4824228  43.4396744  82.1129704  49.4001818  43.2311058  81.9384766
  48.4970284  43.9020681  82.9509544  55.0515890  26.8307519  67.1175909
  55.9581280  27.0898247  66.9523478  54.7261333  27.4814034  67.7396536
  19.7142780   9.2771298  64.3228340  20.1219273   8.4345925  64.5232964
  19.9281263   9.4338727  63.4030867  86.0365295  10.0645590  85.4797459
  86.1377335   9.1157562  85.5556583  86.3257790  10.4047859  86.3263893
  46.1163568  28.1873155  65.4126024  45.4310846  28.5783005  65.9546089
  45.9198570  28.4869766  64.5250130  91.9948101  26.2518144  83.4960270
  92.1599960  25.3120184  83.5717297  91.1144257  26.3697481  83.8527298
  53.1389475  30.6364012  41.4116001  52.9122543  31.0103679  40.5601358
  52.3154211  30.6349969  41.8994904  92.9493570  94.6246136  41.7904949
  92.5526284  94.4037510  40.9478474  92.2365140  95.0155652  42.2957134
  94.1675282  83.4902627   8.1121647  94.0560532  82.5463374   7.9990112
  93.8036872  83.6722429   8.9786160  57.3441315  32.6170111  60.0989485
  56.6468382  32.1297240  60.5377674  58.0991316  32.5313258  60.6810665
   4.0016987  64.3026204  11.2099468   3.9436390  63.5592468  11.8101608
   4.3324997  63.9265687  10.3942310 112.2362424  74.9084432   4.1156399
 111.6270877  75.2724798   4.7580158 112.8600884  75.6152256   3.9497959
  57.4531984  10.3010678  68.9641333  57.5618124   9.4870627  68.4723711
  57.5693178  10.0453818  69.8792124  85.6855202   5.4856449  39.9407840
  85.3655624   4.8144162  40.5435371  86.5653610   5.6914288  40.2566338
  76.8527699  37.8190064  80.6376266  76.5447521  37.6787424  79.7422647
  76.0908651  38.1663871  81.1013699  64.6670007  98.3424324  83.0141735
  64.0100145  99.0335608  83.0974865  64.6762895  98.1321037  82.0804119
 112.7696849  81.2031062   6.6424858 113.2760764  81.8720849   6.1817658
 112.7437926  81.5052612   7.5503838  17.3434924  89.9753535  59.7550297
  16.4697885  89.6636987  59.9911261  17.7861308  89.2032052  59.4027662
  29.6647334  37.7370954  73.9772987  29.2100096  37.7352333  74.8195887
  28.9641881  37.6888824  73.3268023  67.5683165  22.1163058  73.9624739
  67.3553467  21.3642693  74.5150232  68.4716892  22.3340559  74.1921091
  40.4019737  13.6965919  88.2483292  40.3798008  14.3038809  88.9878845
  40.1024485  14.2164266  87.5024796  93.2943630  10.8471322  74.8770046
  92.6198483  10.2371144  74.5784330  92.9448605  11.7128313  74.6657085
  83.0124092  17.5756919  69.9419117  82.8289223  17.9840386  70.7879686
  82.4799442  18.0685627  69.3175745  78.2268906  27.0409989  71.2124109
  78.3385468  27.1542835  70.2685213  78.1665134  27.9326844  71.5551758
  61.5139627  95.8354772  29.9343491  61.4258622  96.6053105  29.3723631
  61.4776754  96.1838294  30.8251739 105.9083939  50.5466795  67.3124790
 105.6790924  51.2422514  67.9287815 105.1390362  49.9774027  67.2967386
  76.3864231  12.4904764  74.6426153  77.1229029  12.5806642  75.2473450
  75.8658314  13.2819867  74.7794676   2.9790213  67.0175917   0.8820736
   2.5252964  66.3003118   1.3246548   3.9033081  66.8808253   1.0899746
  68.3585215   8.1933600  58.3267736  68.3534813   7.4730694  58.9571619
  69.2596436   8.5159403  58.3388758  53.7303448   1.1878927  69.5344973
  54.0028906   0.3188129  69.8288679  54.1943264   1.7931324  70.1129770
  76.3057280   3.1423804  43.9091921  76.6664839   3.2486603  43.0289698
  76.7005157   3.8512290  44.4170380  50.3812075  22.2554445  59.0175772
  50.2788877  21.3573146  58.7027311  51.1173487  22.2128844  59.6279144
 110.1872254  82.6985104  56.2144863 109.2928601  82.9213078  55.9562123
 110.5326129  83.5034568  56.6004955  17.4102786 102.6902087   6.7569077
  17.3802378 102.5458176   5.8111393  16.5333655 103.0028374   6.9794380
  33.9710760  56.8846846  83.5439682  33.0592799  57.1759892  83.5451412
  34.0301156  56.2854528  82.7998829  69.0589905  18.1706142  73.6046362
  69.4107199  18.9297819  73.1396818  68.9792538  17.4938643  72.9324102
  35.7657670  88.9990020  67.8049135  36.6683768  89.2945278  67.6857805
  35.5287027  89.3007708  68.6818218  45.5156231  16.9962037  69.8326015
  45.0436974  17.8269899  69.7750568  46.2225628  17.0774794  69.1923952
  75.1118279   8.7828988  62.6758671  75.6206894   8.1626493  62.1537733
  75.7621717   9.3925798  63.0245447  66.2987328  41.9782734  62.1120167
  66.1024427  41.1164236  61.7447138  67.2059774  42.1462440  61.8572140
   8.3098795  16.5938647   2.1809971   8.5901453  17.1196802   2.9301274
   8.9845087  15.9202368   2.0953762   8.4665968  87.3215039   0.9920227
   8.2133868  87.8170021   0.2131760   9.4096091  87.4653418   1.0713017
  59.2464780  96.2434877  75.9081984  59.8843717  96.9359869  76.0807514
  58.3995771  96.6893805  75.9208965  28.1195258  97.8760428  64.0817499
  28.4688806  98.4897769  63.4356022  27.2051191  97.7541131  63.8263512
  74.8953915  26.1429429  54.3363571  75.2687454  26.8089032  54.9137068
  75.5490732  25.4438305  54.3229580 104.3971015  64.3740530   3.2998383
 103.9486600  63.5543246   3.5076248 104.0219022  65.0126798   3.9061463
  67.1784067   1.7194137  71.6713190  66.6407776   1.6237520  70.8851671
  68.0224228   1.3363153  71.4323521  90.8457756  29.5986390  73.3636189
  91.6762733  29.7657371  72.9179859  90.2310944  30.2134275  72.9630709
  74.8597122  80.8707125  17.9993164  75.1357032  81.6920812  18.4060299
  75.6766082  80.4495246  17.7318871  97.6063825  61.4483542  16.3040077
  97.1045972  60.7369883  16.7020046  98.0762339  61.0342242  15.5801499
  71.9703484   3.3607048  68.4198380  71.7625856   3.9862758  67.7257729
  72.1217632   2.5347474  67.9603863 106.2076951  91.9580276  11.4653408
 106.8748618  92.1959288  10.8215058 105.3792287  92.0385511  10.9926998
  89.4811153  22.2756290  66.0677576  89.6752357  21.3590527  65.8717060
  89.3069744  22.6715279  65.2138424  88.7543774  24.6367073  73.0005598
  89.5529270  25.1638818  72.9754829  88.5688400  24.4391942  72.0825243
  14.7272491  87.2600973  39.0935969  14.9903726  87.2181893  38.1742287
  15.0698756  88.0986870  39.4027996  49.2756891  25.5942845  37.0752144
  49.2496490  25.7370377  36.1290765  49.9265099  24.9027324  37.1952724
  77.7709579   2.9099679  41.7032814  77.5883770   2.6494962  40.8004808
  78.6491585   3.2893080  41.6701746  61.0015297  34.1365266  65.9275532
  61.8329763  34.6047163  66.0031986  60.3357077  34.8001146  66.1080027
  61.8865728  10.1534522  55.3798294  62.5252819   9.7745454  55.9837389
  61.7455578   9.4724810  54.7220850  66.4601517  18.8519609  48.1700754
  66.9244146  19.0155399  47.3491383  67.1537495  18.7606108  48.8233852
  84.0429401  12.5245249  80.5706310  84.6935558  12.1216226  79.9956465
  84.3910217  12.3963416  81.4530373 107.9726601  55.3199002   0.2183544
 108.5311747  55.2890545   0.9951031 107.1179725  55.0178250   0.5257618
  20.8240318  20.1083255  69.3626118  20.8374524  19.6463168  70.2008247
  20.7291865  19.4156480  68.7088251  49.9065447  19.6529651  58.2047653
  50.0351095  19.5483041  57.2620296  48.9567280  19.7015214  58.3130312
  86.9301129  58.3389811   3.1508457  86.6253424  57.5104578   3.5208428
  86.5572215  59.0088136   3.7240040  77.3217249  35.8973145  63.9868021
  76.8184710  35.0832725  64.0042830  77.9505444  35.8055782  64.7026205
  45.6075238 104.1379661  54.2857647  44.7229242 104.1823727  53.9227867
  45.5211019 103.5817099  55.0599384   2.8805306  82.4612505   1.9178307
   3.1444790  81.9086058   2.6534569   2.7770712  81.8527849   1.1861813
   9.5635509  77.6189900  58.1868792   9.6547555  77.4734879  59.1285467
   8.6781072  77.3181034  57.9826880  52.2184753  34.9483347  55.5204439
  52.3931885  35.4148436  54.7030878  53.0839396  34.6946120  55.8411169
  85.9939099 100.0454457  17.1525776  85.6738377 100.8291609  16.7058384
  85.4671527  99.3322165  16.7919361  62.2891235  34.7311425  74.8972034
  62.0608902  34.6399641  73.9720964  61.4545584  34.6500993  75.3589058
 102.8177547  29.4117546  53.7271643 102.3373699  29.5172262  52.9059792
 103.2829380  30.2405787  53.8406754  74.8550797  25.8257413  58.3098936
  75.6160641  26.4014316  58.2342958  75.1153755  25.0238967  57.8565454
  83.8698959  33.2352400  66.3542843  82.9878902  33.6047077  66.3965940
  83.7377357  32.3323154  66.0653305 112.1939422  80.6340916  12.0996296
 112.9454947  80.5018027  12.6774704 112.4385072  81.3832290  11.5563023
  99.6991921  83.4228714   3.8738453 100.5330373  83.8069518   4.1447937
  99.8899413  83.0038650   3.0346310  21.2871051  40.4648924  77.2411013
  20.5714202  40.6786585  76.6424942  21.6674542  39.6628428  76.8829346
  66.6485214  38.0218387  69.6774912  67.2680044  37.4406362  69.2362690
  66.4599943  38.7043357  69.0333748  91.6674900  23.0332446  47.8688335
  91.5588093  22.2121024  47.3890972  92.5137043  22.9442859  48.3072853
 101.9373847  79.7292669  42.1871006 102.5499249  80.4276807  41.9563400
 102.4962617  78.9909894  42.4296486  78.5020542  12.9492724  70.2424812
  79.0397930  13.5705733  70.7334518  78.6511230  12.1088648  70.6757545
  41.1464787  36.0835910  79.1283035  41.6268253  35.7642961  79.8922062
  41.6938448  35.8394766  78.3819628 111.2640525  78.7982590   2.7839863
 110.9918691  78.6480005   1.8786823 110.4571582  79.0370805   3.2401859
  89.0069008  17.8194785  61.8668985  88.8515663  16.8931258  61.6825819
  88.6236954  17.9589140  62.7328920  61.8217564  23.7328959  75.4579258
  62.2307777  24.3170214  76.0964632  62.3618412  22.9428172  75.4756784
  41.4016199  20.1429248  64.2171907  41.1460733  20.6092691  63.4212923
  41.6427040  20.8347559  64.8332071 110.5300809  71.8132062   7.3362362
 110.6152774  72.7551551   7.1889031 111.1048127  71.4155324   6.6821873
  84.1757393  20.8986378  83.7977982  84.9985218  21.3496804  83.9870548
  83.9685154  20.4292798  84.6058846  18.8510369 101.5724260  75.0408697
  19.4329499 101.0443539  75.5874491  17.9896974 101.1690850  75.1487637
  89.9027729  27.7910566  85.8882523  89.3302155  27.6027179  85.1446533
  89.3069077  28.0613351  86.5869141   3.2129386  11.3464910  23.9625275
   3.8863614  11.9285328  23.6104405   3.4704402  11.2058193  24.8736393
  85.8919431  16.9658048   5.5160439  85.0229789  16.6184123   5.7171547
  85.9105445  17.0263178   4.5609390  19.3735220  88.0041797   4.1477120
  19.6960070  88.5756905   3.4508526  18.8777068  88.5856612   4.7241413
  73.4616709  15.6237650  86.5378857  74.2501926  16.0502136  86.8734550
  72.7485085  15.9975028  87.0555210  66.9151449  13.0342603  61.9440651
  67.0901632  12.8112793  61.0298014  67.7537537  12.9046345  62.3869753
  50.9785652  16.9295681  62.6666307  50.9735537  16.8955171  61.7100477
  51.7781544  16.4675891  62.9185534 104.2006588  31.5100598  35.6237197
 104.5138550  31.7193580  34.7437572 104.2292786  32.3439622  36.0927820
  97.6636935  68.7307019   6.2509167  97.0502330  68.7693949   6.9846737
  98.5231639  68.6378725   6.6619217  52.6133966   6.7214257  44.9851322
  53.0210018   6.1363596  45.6237125  52.7571917   6.2926620  44.1415024
  52.7370118 101.5861673  82.1879196  53.1193971 100.8038939  82.5854874
  51.8835591 101.2976730  81.8644619  79.6368456  41.1409616  90.1553059
  79.0055561  41.4580965  89.5094490  79.3862152  40.2298403  90.3078651
  67.6773167  40.3231049  79.5991516  68.0551910  40.4692221  80.4663849
  68.4242821  40.3658628  79.0021181 110.4801152 103.0487422  40.9435654
 110.2967427 102.5989655  40.1187611 111.3081524 103.5035274  40.7894325
  58.0601597  30.2542782  86.5500927  58.2511806  31.0769987  87.0005131
  58.8652039  29.7431803  86.6332436 103.8528631  96.5052379  73.0438089
 104.2508624  96.1920810  73.8560629 104.0687320  97.4373383  73.0151463
  41.0739994  35.7542872  73.4735107  40.8289528  36.6613770  73.2908297
  42.0149231  35.7209754  73.3009243  70.8294058   4.6682727  66.3934088
  69.9697781   4.2650458  66.5145779  70.9542370   4.6855775  65.4445410
  71.0892200  37.8779292  86.6169930  70.5369711  37.5353503  85.9142208
  71.8888235  37.3538232  86.5703583  53.6065544  86.6077716  14.1898548
  54.3435562  86.0048897  14.2877876  53.9091016  87.2543080  13.5521328
  96.4545251  56.0647811  -0.1342285  95.6297208  56.4957972  -0.3581989
  96.6213370  56.3231198   0.7722294  66.0284138  50.2014923  84.2794323
  65.2414370  49.6939278  84.0812588  65.7883263  50.7276249  85.0421715
  55.6022501  46.8916321  53.3494616  56.3016748  46.3873482  52.9338455
  55.9177065  47.7952480  53.3355618  82.6268196  33.0413198  55.3358316
  83.2759380  32.5106931  55.7976866  82.3378086  33.6838341  55.9838152
  62.8295135  23.8738847  65.0818253  62.8842306  24.8125768  64.9026680
  62.3482561  23.5153770  64.3361044  78.5248089  12.3414135  61.2067270
  78.9962721  11.5503991  60.9454775  78.8333559  12.5218821  62.0946789
  86.9651080  86.3163216  16.9889557  86.6419412  85.4216511  17.0955383
  87.2524834  86.3601239  16.0769665  94.4613934  87.3410280   1.1604798
  94.9908496  86.9616039   0.4590904  95.0816918  87.4926837   1.8735516
  30.9012842  39.0875936  64.2933798  31.3327479  39.8457456  64.6874332
  30.0142980  39.1031265  64.6528912  57.5586987  17.6264036  82.4765015
  58.0500555  18.3993173  82.7547264  57.5251102  17.6946080  81.5223312
  54.3108845   9.0366125  58.5557747  54.9111843   8.3090919  58.3927155
  54.0138197   8.9048254  59.4561148  60.8536602  51.4438212   5.6400215
  60.1415754  51.4389315   6.2796700  61.1808563  50.5442805   5.6389820
  53.2125330  13.0071449  61.7059898  52.9598331  12.1808147  62.1177626
  52.9526567  12.9076779  60.7901287  23.0474424  95.2468563  54.6601534
  23.1954574  96.1572779  54.4043112  23.8798284  94.8094249  54.4812155
   6.2614539  46.3862164   7.8392231   5.7214739  47.0758582   7.4531567
   7.1592524  46.6315879   7.6156532  34.6836280  94.6499038  59.6547365
  34.9041890  93.7252963  59.5421124  33.9692210  94.8027754  59.0362835
  68.5456991  10.2979374  60.3217316  68.5776234  11.1057150  59.8091793
  68.4391642   9.6048874  59.6701479  71.1679412  52.9029741  14.2480194
  71.3897229  53.1788764  15.1373589  71.9813562  52.5366613  13.9010346
  19.6096566   4.0656692  25.0141346  19.4953540   5.0081236  25.1363766
  20.5512384   3.9239199  25.1119530  38.8884711   4.5314598  69.6478271
  38.5317111   4.9939752  68.8895178  38.1180739   4.2147496  70.1194382
 103.0651379  38.7035489  61.5381813 102.8994656  39.2395639  60.7626390
 103.0826092  39.3291473  62.2624445  49.9355268  20.1914835  79.3707466
  49.8304415  21.1423111  79.4041061  49.0593052  19.8474395  79.5442295
  82.2523308  61.6410303  77.1906710  82.4516296  60.8681154  77.7189875
  82.9577637  62.2563076  77.3907471  45.7318020  39.1311765  61.9142818
  46.6041231  38.7735033  61.7488623  45.7286835  39.3316793  62.8502369
  55.5712509  48.3138180  65.5543756  56.4995432  48.0989170  65.6456137
  55.1776409  48.0308008  66.3797235  84.1629791  19.2789996  59.8880196
  83.8357735  19.6221054  59.0564871  83.7415791  19.8224831  60.5538082
  51.6691256  15.9638858  57.5825119  51.7397976  16.4239287  56.7460918
  52.3030376  15.2496505  57.5173330  61.0103369  48.0794287  86.5488148
  61.2978840  47.3886251  85.9518719  60.5565500  47.6147985  87.2519684
  69.2255068  14.6760535  77.8886127  69.5240355  14.3427110  78.7347794
  69.7549725  14.2048883  77.2452593  63.9386177  31.9491935  72.6412058
  63.8302326  31.3623118  71.8928385  63.8980627  32.8280830  72.2641850
  37.5903869  36.9964957  60.5799961  37.6606560  36.2596416  59.9730873
  37.0204997  36.6770673  61.2795877 102.6765824  67.0547779   9.4776642
 102.8978921  67.3715372   8.6019241 103.4870005  66.6622336   9.8022759
  49.0836381  93.9100135  47.2403479  48.1277894  93.9320028  47.1944284
  49.3131208  94.6454406  47.8084278  24.4918155 102.2926263  67.7606726
  24.7711133 103.1477345  68.0878067  25.1309871 102.0753584  67.0820808
  66.0389853  23.6581969  47.0723915  65.3742886  23.0923271  46.6797113
  65.5404043  24.2864919  47.5947857  65.6788254  17.7634251  83.1519794
  65.0326395  18.3323097  83.5703659  66.4927816  18.2664883  83.1771278
  47.4807596  14.2161763  61.2873363  47.2851515  15.1531577  61.2816429
  48.4148264  14.1652668  61.0844612  15.8927824  69.2634172   6.7973244
  16.2034037  69.1670473   7.6975834  15.7240775  68.3676989   6.5049946
  51.5974092  31.9859123  72.7441692  51.0845900  32.6578093  72.2949457
  51.7691994  32.3550177  73.6104727  66.1408234  11.6025245  66.7527056
  67.0359850  11.7462683  66.4456892  66.2198973  10.9050035  67.4034309
  87.7962875  26.2643671  57.1754742  88.3815670  26.1928058  56.4214468
  87.9738903  25.4782963  57.6919842  30.9240508  21.9772696  74.5699596
  30.7613206  22.8091145  74.1252279  31.5119958  22.2021961  75.2910423
  35.3158736  28.8415289  69.6020699  35.2605557  28.4546375  70.4758453
  35.9303665  28.2797241  69.1298342  45.2826977   0.5411454  60.8871698
  45.2301979   1.4788261  61.0721827  44.3785095   0.2806629  60.7115984
  38.8883138   7.3902309  51.2259817  39.8385286   7.3088890  51.1440706
  38.7416887   7.5585473  52.1567869 112.0878650  61.7659385   8.0070984
 112.9926205  62.0188923   8.1905949 111.6273404  61.9067032   8.8343441
  67.3480416  64.4690306   9.1569340  66.7957998  64.6077354   8.3875000
  68.1748510  64.1419227   8.8025009  47.8638458  11.3660657  61.8771791
  48.2399178  10.6010246  61.4418459  47.8436852  12.0415652  61.1992979
  79.1805267  35.8351994  65.9108877  79.4838142  35.1508832  66.5075111
  78.7134218  36.4532995  66.4730215  79.1936541  29.6833158  89.8439407
  79.4079971  29.4080520  90.7353020  80.0113964  29.5782328  89.3576431
  49.4144773  24.1961956  42.7878094  49.4169521  23.7350535  41.9490147
  50.1604509  23.8313770  43.2638931  87.1916676  13.9738584  60.8498526
  86.6912270  13.1607497  60.7817268  86.8645191  14.5172322  60.1329517
  48.0857705  84.8809314  52.6159096  47.2901963  84.4239450  52.3430538
  48.4574556  85.2213979  51.8021727  71.7776966  11.8846667  63.1814051
  71.6004086  11.5065336  62.3201180  72.2068501  11.1810219  63.6681747
  85.0603008  37.5164485  76.6490698  84.8445511  37.8296614  77.5274611
  84.7198486  36.6222119  76.6233015  83.6679459  51.0076949   5.6704056
  84.4546843  50.7790513   6.1653721  83.5306025  51.9368817   5.8547508
  63.8564920   6.5994900  41.1668634  63.7080193   6.4199537  42.0952797
  63.6632919   7.5319028  41.0693359  40.4494858  33.3490539  44.7731733
  39.5165348  33.1699419  44.8904419  40.7763195  33.5065675  45.6589508
  38.8827920  22.2908568  58.5888386  38.6904073  21.7446136  59.3509674
  39.8352098  22.3860979  58.5967016  73.1820393   1.5062703  66.5052414
  73.8891268   2.1206409  66.7022467  73.3054352   0.7909934  67.1292448
  52.4921751  36.0822129  52.9703426  53.0976772  36.6774797  52.5284624
  52.4266911  35.3284431  52.3840189 103.9199392  30.7031775  77.0259953
 103.9544140  29.7884417  77.3058224 104.8284732  31.0013509  77.0694780
  33.0477332  92.2139919  64.2433548  33.4179305  91.6805351  64.9466372
  32.7788829  91.5803099  63.5782242  58.8321590  19.9562550  82.3563671
  59.2525816  20.6041336  82.9218102  59.2774725  20.0485110  81.5140915
  57.1542549   0.8217955  89.3142319  56.6667938   0.9416752  90.1292419
  56.9961214  -0.0908009  89.0725803  96.6339207   1.7067096  57.6360655
  97.0818615   1.1475016  58.2707787  97.2606277   2.4053827  57.4481201
  92.6007701  95.3658040   3.4232437  92.0916653  95.8442528   4.0775597
  93.4009314  95.8806784   3.3189499  33.1278276  99.3829340  45.4098797
  33.4009647  99.6791536  46.2781429  32.1765231  99.2983801  45.4739380
  77.8855992  62.0895017   4.2182362  77.0753218  61.6605700   4.4933712
  77.6960231  63.0253197   4.2855847 108.2968903  91.9810588  18.4709751
 108.2388450  91.1420424  18.0139076 108.1535722  92.6362665  17.7880490
  17.6958179 104.9386988  58.0139494  16.9847345 104.7295489  57.4082708
  17.2597694 105.0877643  58.8529205  59.2362785  15.3591704  63.2427597
  58.6916351  14.5743823  63.3035898  60.0634956  15.0486720  62.8746080
  52.7377987   9.3958509  69.7863579  53.2503223  10.0897491  69.3715572
  51.9571924   9.3144602  69.2383957 100.8296491  84.5646746  18.6103832
  99.9635793  84.3543417  18.9595329 100.8990670  85.5152710  18.6985981
   0.2884104  63.4937902   1.6514408   0.6313899  62.7557595   1.1475479
  -0.5820558  63.2095529   1.9302380  94.9731159   7.3663718  34.6599984
  94.1574001   7.5027156  34.1780806  95.4183578   6.6654944  34.1837978
  71.5378475  14.6781540  53.2800293  71.1103106  15.1712251  53.9802599
  71.1915064  13.7900126  53.3665466  83.4581852  42.3761845  69.0950155
  83.4714890  41.9515371  69.9527597  84.1362095  43.0495501  69.1505814
  63.9739323  29.1986060  91.5965271  63.9184856  30.1537967  91.6243076
  64.8625565  29.0191126  91.2893391  62.5018644 100.1458431  74.7504139
  62.8002977  99.3925328  74.2408133  62.1644544 100.7585496  74.0969801
  81.4936352  23.9257884  56.9374895  82.1277428  23.5597157  56.3209438
  80.7424068  23.3346820  56.8876839  42.8452063  12.6941192  71.8187714
  43.5603952  12.0582616  71.8391943  43.0101585  13.2643259  72.5696945
   9.5106223  92.5453980   0.1736462   9.9756148  91.7112715   0.2388489
  10.0746443  93.0918963  -0.3735721  60.3204203  10.6131589  24.9291062
  60.5737782   9.9729574  24.2641354  60.1399803  10.0891936  25.7095766
  56.2864208  39.9612308  81.7471027  56.9835234  39.9430752  81.0913944
  55.4811239  39.8405790  81.2439442  47.2386646  11.9966161  49.6814108
  47.8081083  12.1577919  50.4337311  47.6663113  11.2846708  49.2055082
   2.2525837  47.5968344   4.1650688   1.7202332  47.8546609   3.4125054
   1.6433814  47.1379037   4.7434151  32.8116893 103.1787065  43.9600992
  33.3715104 102.4079535  43.8664198  33.2590198 103.8617778  43.4605551
  92.6337672  81.5138967   1.4151108  92.1706773  80.7521374   1.0665428
  92.0200969  81.9027264   2.0383751  34.3882083 106.0231073  48.9761114
  34.9367093 105.6137153  48.3069515  34.9556445 106.6775776  49.3834352
  50.0235081   6.0296059  87.0509911  50.0987196   6.5119416  87.8743553
  50.7847261   6.3063383  86.5408993  99.0183259  64.0444489   2.3713219
  98.6774398  63.4859641   3.0699837  98.2376576  64.3844767   1.9340908
  94.9501324  38.0346966  70.1259375  95.2291012  37.1994281  70.5010939
  95.6904984  38.3146906  69.5876980  57.1668625  17.8414679  69.3673801
  56.3217878  17.6809704  69.7872782  57.6614094  17.0340896  69.5080900
  42.8798723  16.1829495  85.8044529  43.8091564  16.0095692  85.9548092
  42.8674269  16.9832146  85.2794266 106.4401818  74.4256194   2.6301109
 105.9652568  75.0541599   2.0864021 106.6459037  73.7031419   2.0368683
  27.1625327  92.4068058  83.2347584  28.0222224  92.0808685  83.5010815
  27.3508262  93.2094658  82.7484322 112.9861736  50.4309130  60.1828909
 112.2196960  50.9671688  60.3857851 112.6332951  49.6790457  59.7070694
  66.4445782   6.2107188  64.5745945  65.5456257   6.5090597  64.4363737
  66.5514183   5.4813147  63.9640331  19.6949770  68.4572132   6.2766468
  19.8816111  68.8668306   7.1214020  19.5580676  69.1923125   5.6790554
 105.0110912  14.3465066  90.4055786 104.4979763  13.5480869  90.5299854
 104.5513248  15.0093961  90.9207726   5.6326487  89.4703038   9.8741352
   5.3271487  88.5667355   9.9545204   6.4988234  89.3955452   9.4736683
  86.1175204  91.4196999   0.8609211  86.5973092  92.2417696   0.7597363
  85.9509898  91.1276944  -0.0353039  76.6821337   7.4306297  66.1579943
  75.8790159   7.1376050  65.7274437  76.4056635   8.1646770  66.7066002
  60.2230835  20.9775019  74.7098827  59.7020769  20.4110885  74.1407108
  60.0019932  21.8660307  74.4308424  69.1429090   1.6960178  60.1059532
  69.5508623   1.7524758  60.9700251  68.4422302   1.0528012  60.2134609
 107.6730777  63.1777169  10.4425919 108.2681609  63.4604223  11.1369812
 108.1370927  63.3834029   9.6310341  53.8279581  26.7569661  75.3686380
  54.1875792  25.8837748  75.5249739  53.0078506  26.5980911  74.9012899
  84.7093201  31.8565035  63.3537769  84.4666481  32.3545551  62.5732136
  84.1201019  32.1783423  64.0360308  57.1053267  49.7168493  89.8651409
  57.4691105  48.8427925  90.0062656  56.4121580  49.7964478  90.5204391
  51.0270643  22.5087667  72.2849131  50.8240271  22.1831298  71.4080048
  51.9561911  22.7357388  72.2469425  91.0019970  24.9069166  76.3137770
  91.8178844  24.5790172  76.6919804  91.2225723  25.7796836  75.9884262
  89.0416527  11.6974103  54.4142151  89.2847919  11.5047920  55.3197575
  89.2721081  10.9042561  53.9304495  78.1054783  36.7873144  86.7538834
  77.9607773  36.1920691  86.0183716  77.2386837  37.1445084  86.9470406
  67.1190643  42.8655243  78.9567280  67.3183060  41.9948292  79.3008614
  66.2045527  42.8100157  78.6795616 100.7574750  82.6748903   6.4987957
 100.1291705  83.2273204   6.0337269 101.1287022  83.2473094   7.1701824
  57.9202794 102.4040548  45.0056505  58.1776570 101.7330766  44.3733692
  57.1074914 102.0734960  45.3881788  73.3634710  13.9643776  60.3794432
  73.0812931  13.2121921  59.8590326  73.6347866  13.5881042  61.2167215
  86.0954094   7.5606567  72.3916054  86.9800377   7.2910231  72.1447039
  85.5962181   7.5200975  71.5758848 109.7844696  36.4959264  44.1424370
 109.4398499  35.6512642  44.4322872 110.3228569  36.7986202  44.8737049
 107.9387141  87.7732499   4.0779984 107.1250439  88.2243474   4.3031227
 107.6676036  87.0712073   3.4865009 107.9451037  71.3692243   4.1088879
 108.2963181  72.1995778   4.4304287 108.5309125  71.1224790   3.3932221
  78.4792852  17.2849619  92.0206547  78.2880688  16.5442836  91.4452744
  77.6449060  17.7470183  92.1015930 103.8397694  18.7979710  86.2098598
 104.7403145  18.7279248  86.5266418 103.4758282  19.5444489  86.6858292
 106.6828156  78.5559185  28.4254944 107.5375844  78.9755757  28.5229027
 106.5435410  78.5128672  27.4794590 108.8978672  36.6195130  50.4952288
 109.0610790  36.6011214  49.5522308 108.7550259  37.5445461  50.6955862
  65.7691336  17.7670169  60.2963686  65.5869436  16.8588841  60.5378962
  65.4711151  17.8380764  59.3895245 103.1668568 105.7149537  15.0055992
 102.5863791 106.2758715  14.4911587 104.0132094 106.1615164  14.9831593
  72.8648186  25.6605053  77.8404999  73.2081795  25.8188152  78.7198591
  72.0568514  25.1677203  77.9839897  70.3642654  46.6771984  74.9829435
  69.7072411  46.7445421  75.6757736  69.8722649  46.3912630  74.2132616
  44.4116449  31.6099596  66.2746763  44.2122650  32.2525620  66.9555140
  43.8560247  31.8621802  65.5371761  60.8864069  38.8104868  92.1712589
  60.1511669  39.3445492  92.4719715  60.5025101  38.2152367  91.5274143
  60.6254387  13.9841223  33.3987260  59.6685266  13.9706373  33.4180069
  60.8440351  14.1663277  32.4848056  77.2993017  82.7293856   4.7601044
  76.9741703  81.9773824   5.2550995  76.6224981  83.3976657   4.8676598
  89.7272110  42.8968143  74.0803719  89.8584747  43.8419008  74.1565657
  90.6107521  42.5294638  74.1058302  38.8024333   4.7303707   7.4715435
  37.8455833   4.7047264   7.4682057  39.0320161   4.9880106   8.3643734
  78.0681133  12.3476326  53.3347178  78.9801121  12.6263404  53.2522106
  77.5587273  13.1346297  53.1413364  41.0302496  47.4217224  75.6391478
  41.7315674  46.8155622  75.8778000  41.4691305  48.1120014  75.1420307
  70.4122257  45.4136992  90.6863308  69.5292568  45.1830769  90.9751415
  70.7257605  44.6338463  90.2283382  69.4596004  41.8691063  91.9551849
  69.4623280  42.2011423  91.0574245  70.3505278  42.0222235  92.2698879
  29.8523927  21.5101695  80.9544373  28.9533377  21.7761397  80.7615852
  30.3113651  21.5935969  80.1186085  71.7666864  12.4032390  56.1481905
  71.5333939  13.2918108  56.4169788  71.3110399  12.2773743  55.3158617
  66.9456577  57.2991705  87.9044914  67.0273972  56.6860628  88.6350060
  66.7661715  58.1430817  88.3190250  47.9168606  33.8652492  85.3140163
  48.0453920  33.1043792  84.7476387  47.1846914  34.3377447  84.9178982
  87.8317165  10.3463542  37.3896885  87.7718067  10.7893682  38.2360816
  87.9159069  11.0562932  36.7531896  81.0713291  26.0294080  78.9831257
  80.2897072  26.5390277  78.7696123  81.0926437  25.3359413  78.3236694
  62.8621054  33.6692476  84.4787312  62.7502823  33.1922030  85.3010178
  62.5889397  33.0488944  83.8028812  80.2020645  11.9708121  46.7442799
  80.2648067  12.6086080  46.0332870  80.7046127  12.3598373  47.4600506
  57.4857616  28.1263590  66.1650133  57.9001474  27.6249337  66.8672180
  57.6638699  29.0404701  66.3861609  89.8856163  38.2997155  68.8312578
  89.3049812  38.3642721  68.0730200  89.2951584  38.2845807  69.5844889
  44.9089193  16.3486099  92.2345066  45.2836514  17.2089064  92.0455742
  45.3744411  15.7508671  91.6495132  79.5474435  91.2791903  46.8647110
  78.8276912  91.8949254  47.0027363  80.1057912  91.7053015  46.2143910
  22.5133041   2.5507290  11.2163841  23.3808759   2.9426653  11.3160813
  22.4175027   2.4177629  10.2733147  95.2706337  11.1742103  48.3094025
  95.2112579  11.2436569  49.2622328  95.4353237  12.0696008  48.0137968
  85.0758171  31.5720367  92.5794029  84.3980885  32.0436311  93.0636597
  84.6220207  31.2200761  91.8136215  74.9136114  44.4299555  58.4581184
  74.2126989  44.7798586  57.9081059  75.1811409  45.1691294  59.0042686
 107.5937892  93.7462027  16.5154373 108.3793021  94.2418749  16.7467510
 107.0047856  94.3960364  16.1320030  48.9769173  51.9799471  77.1415997
  49.3638611  52.7493811  77.5593138  48.0598450  51.9945002  77.4154615
  78.4979439  45.5165291  71.4396143  77.8121233  45.5483770  70.7726288
  79.2588949  45.1568794  70.9837294  82.9164982  20.5072474  52.3844814
  83.2468605  19.6976054  51.9951630  83.5612583  21.1711025  52.1399117
  70.3039742  17.4889243  77.6088095  69.9700785  16.7563105  78.1265163
  69.5248890  17.8722107  77.2058868   4.8905566  76.8457015   1.9636452
   5.1257708  77.2271712   2.8094494   3.9431002  76.7188079   2.0133125
  90.7137012  45.4276180  75.0744915  91.2983227  46.0537720  74.6474314
  89.8456478  45.8251047  75.0057936  81.1662388  40.5882740  72.1170855
  80.3007889  40.8783102  71.8287992  81.3610744  41.1354494  72.8779221
  98.8655472   8.5452729  41.0186863  98.9942551   8.1416053  41.8770075
  98.1486034   8.0479097  40.6251812  93.6994362  51.6222334  84.1494942
  93.1447124  50.8794832  84.3878937  93.3237648  52.3637915  84.6240330
  21.9769311   9.1355717  83.4892368  22.2318411   9.0203679  82.5738239
  22.6068306   8.6089981  83.9813519  81.7290115  21.6477942  80.4328156
  81.1946774  21.1848736  79.7875118  81.2934017  22.4930525  80.5424309
  78.6614466  19.1945577  82.1528149  79.3664885  19.3178570  81.5172482
  78.6337280  20.0166845  82.6422691  68.0456161  42.8287983  89.4061565
  67.9531813  41.9555759  89.0251446  67.8915596  43.4267759  88.6747742
 102.2704029  43.9685678  63.8392401 102.4381447  44.1718435  64.7594452
 101.8750858  43.0969572  63.8547039 108.3660126  33.7637448  65.6689024
 107.7074623  34.4462776  65.7981014 108.9679718  34.1311669  65.0216961
  75.6629992  19.7827256  55.4890633  75.3083134  18.8994312  55.3879642
  74.9262667  20.3607988  55.2908564  84.7726631  66.7692471  69.9769163
  85.6013584  67.2092962  70.1663017  84.2947292  66.7915058  70.8059597
  72.5324202  24.5029593  47.9202080  73.1110859  24.9373055  47.2935343
  71.8842173  24.0547919  47.3768759   8.6687806   5.3973133  16.6804993
   9.4146207   5.3118927  17.2743523   8.6546281   4.5732767  16.1936867
 102.5592423  58.4103580   0.1255333 101.8992329  57.7700193   0.3912079
 102.1105529  58.9666928  -0.5111778  58.9517450  49.4510937  85.0311756
  58.5761595  50.0128460  85.7091141  59.6867514  49.0146303  85.4618645
  99.3042374  44.1435146  63.1972837  99.6446705  45.0381184  63.2017660
  98.6554718  44.1376543  62.4935102  96.0545921  15.0213695  61.0617733
  96.8245888  15.0246370  61.6303825  96.4019108  15.1967883  60.1872301
  98.9457798  14.2216122  80.3544521  98.7150383  13.3616257  80.0031471
  98.6207199  14.2076743  81.2546635 113.1438877  16.2291080   8.7088406
 112.7414228  17.0972616   8.6851895 113.4225370  16.1189730   9.6179402
  83.7578011  40.7630396  71.3496161  84.1131878  40.8156681  72.2368383
  82.8134346  40.6698895  71.4750147 112.5782108  19.3797767  45.4228544
 111.9308567  18.8326323  45.8676052 112.0771313  19.8499560  44.7564602
  75.2899170  40.6953764  78.4308767  75.0179386  41.1561108  77.6371622
  74.8987103  41.1979008  79.1454792 105.6171704  71.1839433  17.7709877
 105.5399514  71.0612662  16.8248188 106.1836959  71.9493873  17.8678047
  84.8356247  45.0714588  80.7405090  85.4038429  45.8219242  80.5668354
  83.9596462  45.4483604  80.8232403  83.5209179  37.7519441  29.7576070
  83.9786243  36.9140458  29.6893287  82.7260971  37.5511146  30.2517366
   1.2950756  76.1264308   3.3134281   1.7091372  76.9834955   3.2123291
   1.7470362  75.7283385   4.0573895  88.7961578  22.4476600  77.0249367
  87.9179668  22.8003454  76.8813562  89.2571068  22.6103568  76.2019587
  84.4432831  44.5857620  74.5703411  83.5717678  44.2044687  74.6766853
  84.9075031  44.3500042  75.3735590  66.7547083  34.7577310  39.0115070
  67.1776724  34.2175746  39.6790147  67.1067429  35.6360793  39.1557550
 105.2771140  83.7835557   7.0172608 104.9610473  83.9897354   7.8969299
 105.8479596  83.0249937   7.1395313 105.6035995  40.6068563  68.7796831
 105.0239849  41.3556290  68.9197874 105.0113583  39.8726511  68.6171198
   1.9639256  86.4306242   1.0060894   2.1576168  85.7346256   1.6340172
   1.4001372  86.0146935   0.3538716  97.8098489 100.1522715   9.0432560
  97.9147912 100.7855399   9.7533238  96.8835975 100.2073224   8.8081848
   2.7706482  42.0999479  61.8362522   1.8180038  42.0656347  61.9229841
   2.9498626  41.6797352  60.9951019  72.3212147  97.1597481  51.8064404
  72.4128485  97.1951771  52.7585840  71.8758297  96.3291073  51.6394281
  21.4681104  14.8305971  15.5248749  20.9190610  14.4324142  16.2003243
  21.9045118  15.5577118  15.9688294  68.9302495  48.5932714   8.1401646
  68.4933809  47.7429945   8.1891644  68.9416173  48.8032514   7.2063553
  80.3630447  43.4919262  80.2869320  80.5647278  43.0337381  79.4710779
  79.6147442  44.0482092  80.0705528  84.2988968  58.9483404  61.2581110
  83.7499619  58.8022137  60.4876900  84.9624252  58.2598877  61.2134933
   7.6535369  51.1509323  70.0925112   6.8050243  50.8128262  70.3787756
   7.4831821  52.0654058  69.8667908  81.7975044  21.3764739  67.0016670
  82.4299145  20.7212162  67.2965002  81.3298130  21.6326284  67.7965689
  42.0399284  23.4327412  43.5158300  42.4812460  22.7474976  44.0177393
  41.6280794  23.9873672  44.1784048  73.5928488  41.7006731  85.1181507
  72.9251337  42.2825050  84.7550201  74.4087982  42.1952391  85.0415707
  95.3447628  73.6702204  33.4406829  94.7508812  73.4253168  34.1502976
  95.1723766  73.0283689  32.7518129   9.6808578  88.2193661  29.6696830
   9.9705173  88.7023354  28.8956881   9.8704292  87.3036385  29.4654202
  99.5136738  46.8703175  58.0974722  98.6828041  46.7522192  58.5578299
  99.9842167  47.5228739  58.6161232  81.2269783  26.8487000  62.2046518
  80.7204628  26.5713167  62.9680204  81.1272621  27.8004670  62.1839952
  92.7810383  58.4973240  77.3003149  93.7322712  58.4351349  77.2135305
  92.4670601  58.6295033  76.4057875  86.6854763  22.2701192  84.1230488
  86.8268871  21.6854620  84.8676395  87.4169159  22.8864431  84.1601849
   7.5420668  59.3168278  14.3505108   7.7789881  58.3998765  14.2115795
   8.2059958  59.8112191  13.8698876   1.6778041  65.6489420  72.5959682
   1.4409782  64.9528551  73.2088327   2.5414611  65.3968000  72.2692442
  86.7711258  72.3754835  73.0298519  87.0584488  73.2626104  73.2459211
  87.5391483  71.8283081  73.1940413  80.4099655  36.1169052  75.3394556
  80.6734753  35.1968217  75.3549910  81.0067368  36.5264177  74.7130394
  15.4045203   8.6468489   0.7952034  15.0910714   8.5600120   1.6954529
  15.8085635   9.5140678   0.7648766  84.6757030  54.5611191  66.8367481
  83.7876129  54.7129917  66.5135527  84.5982456  54.6244478  67.7887058
  96.2276459  38.8203740  82.4251175  96.0128212  38.0682373  81.8734264
  95.4226398  38.9983940  82.9114342 108.4058952  43.2328510  70.0618935
 109.1347885  43.8488579  69.9878073 108.5649967  42.5893736  69.3713427
  50.4529336   8.4240944  14.5543110  51.0144094   7.7258808  14.8911774
  49.5692876   8.0575687  14.5868885 112.7610207  91.7866039  54.7537613
 112.1493912  92.4684143  54.4757652 112.2843742  91.2956810  55.4231119
  93.0448914  46.5670586  78.8965988  93.8078880  46.7936897  79.4283104
  93.1708908  45.6436634  78.6781979  78.9857483  38.0225444  70.5187225
  78.5187387  37.4080133  71.0848379  78.7928915  38.8837004  70.8894587
  78.8409042  48.4803295  83.6215591  78.4202099  47.7428341  84.0635490
  79.7721052  48.2587528  83.6194706  98.5263252  28.7627459  78.3899307
  99.4022751  28.3948541  78.2733679  97.9354858  28.0794668  78.0732632
 110.4835606  17.8862298  35.4496169 111.2673378  17.4547946  35.1093459
 110.7319641  18.8073349  35.5276680 108.7083960 102.7509291  10.6017983
 108.5299064 103.1792719  11.4389908 108.1782246 101.9542344  10.6225407
  29.9449209   0.9660131   4.5024407  29.8949245   0.7998735   5.4437840
  29.4824317   0.2286322   4.1041863  78.2599211  46.9301987  77.7046585
  77.4960184  47.2373676  77.2164726  77.9855967  46.0916710  78.0759335
  23.2604601 105.8039267  19.0735352  24.1754820 105.9395297  19.3196499
  22.8215601 106.6161616  19.3262589  81.7432499  75.2503014  82.5558567
  82.2900581  74.7005272  83.1170940  81.1555958  74.6350670  82.1172333
  21.9787361  32.2547531  52.2747087  22.8685524  31.9019771  52.2749519
  22.0525409  33.0904984  51.8139362  73.4749556  66.3638306  82.3926353
  73.4290695  67.2754049  82.6810074  74.3988180  66.2247038  82.1844196
  75.0353003  48.9014673  74.5766115  75.5989981  49.1448450  75.3109407
  74.2474365  48.5452700  74.9872541  78.0002213   9.6658754  76.5685034
  77.5489330   9.9988031  77.3442173  78.1250858  10.4366255  76.0148001
  99.6274567  34.0064096  58.0585814 100.1716518  33.2209849  58.0020761
 100.1171684  34.5963812  58.6316013  92.6370335  36.6191602  58.7125540
  92.9974937  36.4313936  57.8459311  92.8613949  35.8504701  59.2369699
  70.5702209  78.0938244  56.2676620  71.3958073  78.1367254  55.7851696
  70.4190111  77.1580791  56.4008856  77.1711493  28.5994959  65.9572887
  76.7353249  27.7541804  65.8489752  76.4696789  29.2000985  66.2091684
  25.4951193  83.9311917   2.7823651  26.0748389  84.6011217   2.4199402
  25.6224348  83.9910228   3.7291729  14.9330093  65.7100487  44.7115088
  14.0087749  65.8451605  44.5023060  15.3760769  66.4747286  44.3438292
 113.1424141  26.5852571  47.0158243 113.3193302  25.6592441  46.8501902
 112.6083469  26.8638659  46.2719297  99.9869156  39.3892145  69.8706770
 100.0142384  38.5162210  69.4790506  99.0581608  39.5464873  70.0407028
  87.4645379   1.8326504   3.4346497  88.4018853   1.9805176   3.5601628
  87.1721319   1.4383299   4.2563831  75.1668978  53.3614159  64.8741817
  75.8023357  53.6424828  65.5325508  74.3177748  53.4528589  65.3064632
  97.0662594  55.6598854  69.6363592  96.7128754  56.5469027  69.7038174
  96.9114590  55.2741718  70.4986191   4.5351984  80.6130965   3.3466351
   5.1034357  80.8728869   4.0717899   5.1169398  80.5776317   2.5873291
   1.6641428 104.3740685   6.6146099   0.8202317 104.3219883   6.1659062
   1.6614487 103.6301596   7.2169602  73.3472157  73.0009222  49.8495579
  74.0604305  73.6344624  49.9281979  72.6828384  73.4516764  49.3283558
  84.3562603   1.6051926  81.9120502  84.7144222   0.8194561  82.3250484
  83.4072208   1.4930777  81.9666767  79.3597746  51.4474154  68.5592699
  79.4428778  52.0605612  67.8289461  78.7130260  50.8073330  68.2622147
  94.8275757  47.0390368  71.3868475  94.1590786  46.8682671  70.7233858
  95.2005386  46.1784840  71.5781021  76.9153357  55.3663445  85.2008152
  76.4803123  54.5983648  84.8304176  77.5987911  55.0053930  85.7654667
  93.3630848  66.6185760  64.9511290  93.9791965  65.9672594  65.2864218
  93.7079811  66.8533516  64.0896463  86.6653347  87.9915524  56.2445116
  87.3990154  88.5707664  56.0384703  86.5763187  87.4336338  55.4718304
  87.9888535  15.3800011  70.3605604  88.4771442  15.2661419  71.1759377
  87.8701687  14.4909430  70.0263119 105.6288719  60.0001144  27.9979491
 105.0142860  59.9329042  28.7286997 105.8381844  59.0926409  27.7767920
  86.3122082  71.1970234  67.5554752  85.4299355  70.8829165  67.7533722
  86.1740398  72.0236731  67.0931005  82.9682064  70.2202177  34.9640775
  82.7127171  69.3419409  34.6819758  82.3256111  70.7996607  34.5547605
 105.3995609  59.9552774  64.1861582 105.0591278  59.3591976  64.8532629
 104.7519493  59.9217987  63.4820938  13.0966856  75.6069024   3.8503372
  12.2885230  75.8943565   3.4255135  12.9421999  74.6859844   4.0607559
  65.4812050  31.6201830  86.1246014  64.8522329  31.0259843  86.5339375
  65.2617455  32.4820781  86.4784527  67.1713066  68.9959812  43.4248161
  67.7561712  69.7460318  43.5324860  66.3752508  69.2435360  43.8951778
  97.0728588  75.7465315  55.5694151  97.6959419  75.7249737  54.8431063
  97.1267223  74.8730612  55.9572029  83.9799309  55.3326416  86.1402798
  83.7197876  55.9363794  85.4445457  84.9304295  55.2613163  86.0525036
  26.0658457 101.0720761   0.1337158  25.8150580 101.9752486   0.3276550
  27.0195868 101.0995038   0.0571644 106.6959476  82.2020912  81.5503693
 105.9391117  82.4843121  82.0639610 106.4649296  81.3245583  81.2457466
  52.6253939 102.4738407  63.2297468  53.5582542 102.3369503  63.3948803
  52.2439909 101.5967846  63.2689810  91.6627121  93.1042957  55.0792599
  92.1065712  92.4348354  55.5998802  91.3029575  93.7112617  55.7260990
  42.5484136  58.6988241  21.8748676  42.4863389  59.6290380  21.6578972
  43.4881547  58.5170443  21.8833267 106.3699106  16.4038259  10.5476200
 105.9169057  17.2006208  10.2717030 105.7007459  15.7207424  10.5045616
  76.5182638  41.6145277  61.3307285  75.9744072  41.3869905  60.5766201
  76.1565065  41.0986423  62.0513010 109.6478748  55.9208488  72.8698158
 108.7436390  55.9316492  73.1836176 109.6762848  56.6017246  72.1976328
  90.0135422  60.2739191  61.3892698  89.9774837  59.4059229  60.9873772
  90.1797867  60.1020050  62.3161125  74.4347191  78.3617449  76.6238832
  74.9284697  77.8077316  77.2284555  74.9820137  78.4078312  75.8399343
  87.6906300  64.7841358  78.8365221  87.2074986  65.5528021  78.5332632
  87.0292377  64.0950680  78.8996220  90.0619316 106.0453701  63.0428553
  90.4460812 105.9223652  63.9109135  89.1803455 106.3757610  63.2157087
  10.2146293  86.1106110  91.2471676  10.3676654  85.2692127  91.6771221
  10.2356578  85.9088898  90.3117085 110.5713654  66.5318251  68.6234140
 111.4790726  66.6470814  68.9045095 110.4422092  67.2004414  67.9507303
   9.2759182  19.1706562  59.8254490   8.6310054  18.7465715  59.2593431
   8.8206150  19.9364483  60.1754379  96.9119358  50.2330828  53.1132555
  97.6611805  50.5039978  53.6437893  96.3268852  50.9906387  53.1205177
 111.1377621  53.9027071  50.5247831 110.9642601  53.8609838  49.5843649
 111.9182014  54.4517612  50.6002188  76.1512327  62.3759651  61.8230391
  75.3904867  62.5291538  61.2626600  76.3121605  63.2202005  62.2444677
  95.9945583  36.3412237  80.8075142  95.6496716  35.6556058  81.3795471
  96.4655685  35.8670044  80.1223183  82.0998764  86.1085320  77.5582361
  81.8444538  85.1860428  77.5572920  82.2740173  86.3078976  78.4781027
 112.5255966  70.4126120  64.0177774 113.3410072  70.3026152  63.5286522
 112.7120495  71.1165619  64.6390057  10.3930047  19.2532904  28.7949669
  11.0977033  18.8460428  29.2987263  10.7489684  19.3380911  27.9104721
  67.3580793  10.0513966   5.5947983  68.1163553  10.0925524   6.1775124
  66.7360261   9.4845611   6.0508549  71.7426825  98.8777447  72.3130131
  71.9066286  99.7089863  71.8676043  72.5728035  98.6673641  72.7406549
  85.0179291  35.7738876  64.6754313  84.4019794  35.0899601  64.9382782
  85.0547028  35.7092237  63.7211275  90.3842163  75.2696037  36.1737609
  91.1080360  75.5470228  36.7353225  89.9585915  74.5649815  36.6622066
  77.7281475  80.8820343  49.7767973  78.1694078  81.2215900  48.9981890
  77.1984100  81.6149044  50.0906420   0.4293205  63.1118536  62.9171228
   1.2567569  62.9505587  62.4637365   0.4919292  62.5955677  63.7207174
  77.5604486  44.5831013  78.7755299  76.6952038  44.9049950  78.5225964
  77.4468565  43.6370325  78.8665009  98.5808372  52.0087147  74.1977692
  97.7563953  51.9733095  74.6828270  99.2420387  52.2000265  74.8629284
   2.4118091  66.6192865  86.5294170   2.1661331  67.5405073  86.4444065
   2.8457405  66.4098215  85.7023335  78.6580992  91.2462425  81.7486095
  79.5726061  91.0711288  81.5266991  78.1630135  90.5880642  81.2608337
  58.1868318  54.5528204  13.2081234  58.4099344  55.3093130  13.7505066
  57.5477460  54.8887999  12.5796997 100.6657982  85.1827145  43.3116388
  99.8186493  85.1055908  43.7505293 101.2360859  85.5925369  43.9620686
  73.0071977  28.7420923  10.1111138  73.4335759  29.0707571   9.3196499
  73.6226228  28.9436323  10.8160031  94.4871330  38.7783289  79.5052099
  94.4109058  39.2754531  80.3196335  95.0660706  38.0480289  79.7236729
  38.4663919  26.3106663  16.5193665  39.2490724  26.1282236  15.9994137
  38.7651542  26.9167025  17.1973717  71.3219833  76.8761587  73.7313604
  71.4416599  77.5076056  73.0220032  71.6430569  77.3285437  74.5114231
  85.2105764  24.2272360  17.5602734  84.6084455  24.3150646  18.2991612
  86.0325006  24.6034939  17.8750717 109.4396687  61.8553066  44.2311621
 109.1419506  62.5389290  43.6309433 108.6806870  61.6769743  44.7864771
  91.0905647  56.6579390  82.5300694  91.1891842  56.9170666  81.6139030
  90.7310581  57.4334002  82.9609394  61.1162141  14.0835745   2.8991997
  61.0077813  14.2771656   3.8303196  60.8543638  14.8899300   2.4548351
  87.0042610  62.3857403  83.0455208  86.6252995  61.9709539  83.8204861
  87.3266792  63.2305384  83.3595276 104.4229031  76.8660116  58.9057636
 104.5782471  77.4202871  59.6705389 105.1952744  76.3027000  58.8573599
  94.8598957  69.6746397  65.9895992  94.8335743  69.9298429  66.9117785
  93.9553738  69.4424629  65.7794285   1.3074448  89.6316822   0.5680096
   0.9872057  89.6902521  -0.3321255   1.6598704  88.7446053   0.6396019
  76.8270636  59.3644333  86.0135651  76.4630079  58.8468647  86.7317677
  76.0965061  59.9055004  85.7139587  95.1163960  64.7407198  65.5345297
  95.0304317  64.3243980  66.3921547  94.7394562  64.1085529  64.9225521
  81.7296600  54.7335434  41.1667061  82.3497868  55.4619265  41.1330128
  81.1681747  54.9314833  41.9162321  96.2549210  74.8694897  51.1931133
  96.6837120  75.4354239  50.5511618  96.0088634  75.4592228  51.9057846
 108.0257797  69.6930838  65.1691389 108.1179905  69.1603804  64.3792295
 108.0663204  70.5963421  64.8549652  70.5819085  24.1472752   5.4172146
  70.1761583  23.9410622   6.2592804  71.5033868  24.3000967   5.6263935
  84.2605305  86.3221645  52.3014212  83.4288311  85.8640194  52.1804905
  84.2026997  87.0808506  51.7206573  18.6302950  77.9833348   4.3258297
  18.5197451  78.6675413   4.9860298  18.3888056  78.4049971   3.5011398
  91.7252687  20.5108387   9.6001351  92.0861009  21.3840181   9.7537148
  90.7950643  20.6621439   9.4326031 105.8848190  65.3079319  85.7742596
 106.7864227  65.4389811  85.4806900 105.6062222  66.1696386  86.0842228
  65.6410363  31.5430433  10.6982529  65.4591707  30.8202059  10.0977051
  65.7184652  32.3110277  10.1321900  99.2632294  51.4045095  53.9959431
  99.8726749  51.1291599  54.6807623  99.6927071  51.1536837  53.1781006
  97.4665546  47.1443224  59.8488998  96.7160606  47.1233845  59.2551327
  97.0951462  46.9572306  60.7110405 110.7683086  66.3839483  17.6975334
 110.0235558  66.7835522  18.1468689 110.6426620  65.4424953  17.8163195
  87.5668621  75.4713345  31.6081834  86.8579292  74.8834515  31.8690252
  88.1843948  75.4408550  32.3389077 104.3725300  62.1418571  89.7599030
 104.6903896  62.3189259  90.6452465 104.7294521  62.8547955  89.2302227
  88.0191326  59.5772791  69.3924618  88.5991001  59.2669106  68.6970949
  87.8182983  60.4815054  69.1510677  21.6288950   1.8820476  47.5106335
  21.3209441   1.8263816  48.4152317  21.0937216   1.2461090  47.0358706
  83.2613659  49.6167755  66.2688351  82.6312828  49.9857092  66.8877935
  83.5759354  50.3703785  65.7694674 106.7674351  59.2123699  48.3782721
 106.3546371  58.3563089  48.2643175 106.4065742  59.7482061  47.6719475
  94.7876453  92.4920940  91.7980480  94.3051624  92.5887871  92.6190758
  95.4069424  93.2219601  91.7967892  64.3320894  68.1272125  61.2031078
  65.1665783  68.5941076  61.1599159  64.5492363  67.2259998  60.9645844
  70.8502722  70.6234789  83.3882427  70.0494671  70.8736610  83.8490582
  71.5533018  71.0413933  83.8855553  95.0210285  77.1205044  52.5169325
  94.8809338  76.9185781  53.4420443  95.8408546  77.6143265  52.5010443
  90.3937054  74.3611288  79.7945261  90.4573822  75.3151178  79.8402166
  89.8493195  74.1939926  79.0251493  97.8097057  78.2021236  40.9321117
  97.3923492  78.2966757  40.0758934  97.1723080  78.5599804  41.5500879
 109.0971470  53.7421846  52.6132536 109.7232246  53.8834286  51.9031000
 108.2502079  53.6647844  52.1740198  99.3945599  69.2191982  57.3555517
  98.4763432  69.4855070  57.4023294  99.4336891  68.4050560  57.8574228
  61.4435533   9.7461016   8.8138783  62.3535589   9.5136625   8.6292374
  61.1477712   9.0808041   9.4352638  81.3898659  59.1316462  49.9314833
  81.2610149  59.5330667  49.0721273  80.5406475  58.7450409  50.1450109
  76.1911297  66.1504316  38.2009411  75.9409046  65.3901196  38.7258601
  75.3966045  66.6823483  38.1558824 107.6599884  93.0984783  74.6539497
 107.8841209  92.4527645  73.9838457 107.6185131  92.5952435  75.4671288
  92.1868801  58.9819384  65.1766348  91.7588520  58.3716869  65.7771492
  92.8131199  59.4564009  65.7233906 103.7890339  26.3846922  72.2378826
 104.2559052  26.9353771  72.8663826 102.9191971  26.7790341  72.1737289
  94.8612881  17.3298895  55.5904388  94.6102715  18.0318999  56.1907721
  94.7120285  17.6955700  54.7185278   7.2872974  66.9923782  52.7821684
   6.5431072  66.4074612  52.6397753   7.7058364  67.0607328  51.9240427
 105.8304263  10.4580211  88.9397240 106.0844279  11.3067817  88.5773563
 106.1235190   9.8217201  88.2874489  93.8321686  60.2445459  66.9312716
  94.3486595  59.5379829  67.3188829  94.3590832  61.0312271  67.0717049
  12.7703621  87.3587608  70.8792114  12.4712326  86.9531345  71.6929770
  11.9876052  87.3988533  70.3297424  74.4996119  59.0644312  41.1680126
  74.5740366  58.2437849  40.6809473  74.5955610  58.8081074  42.0852470
  82.3071766  60.2809572  54.6858215  83.2593346  60.3170729  54.7770357
  82.1334648  60.6735802  53.8303089  30.4241278 104.2621977  15.4489815
  30.8417323 103.9073355  14.6641743  31.0618021 104.8843033  15.7991135
 105.7234097  52.5563669  76.4212751 105.2259541  53.2260370  76.8906498
 106.6228390  52.6657867  76.7299557   6.8738796  59.7541571  65.8202600
   6.2778904  60.2062798  66.4174271   6.6414310  60.0860739  64.9530602
  92.7540302  65.9992647  11.0608351  93.5278511  65.4358959  11.0671794
  92.9027653  66.6185522  11.7753923 104.1212273  74.7125530  46.8491745
 103.2020283  74.9161625  46.6763926 104.1348839  74.4220924  47.7611399
 111.7169952  73.7221146  45.3597116 111.7302608  72.7719831  45.2443647
 110.8816338  73.8992357  45.7921934  11.2428428  72.3717117  70.8346128
  10.9366848  71.6371536  70.3027058  10.5998947  73.0637646  70.6799793
  58.9325190 102.0858097  91.2540627  58.1823969 101.5179634  91.4304066
  58.7452221 102.8882313  91.7411709  27.6026156  17.8094005  35.7507801
  28.2626917  18.2995796  36.2409449  27.7148154  16.9032668  36.0381126
  81.7111111  89.7402859  75.5435276  80.8182430  89.5347214  75.2664709
  81.8183613  90.6686687  75.3365755  86.2030697  45.8464050  73.0441999
  85.6009007  45.3266382  73.5766172  86.9751930  45.9605598  73.5983086
 106.8418789  27.7773285  77.7506638 106.8991184  27.5069880  78.6671114
 107.6806068  27.5155401  77.3708916 100.9383869  68.8996363  72.8954172
 101.6300583  68.4544802  72.4058628 100.8521271  68.3927345  73.7027836
  84.1624928  55.0724506  49.9931669  84.8342800  55.1921320  49.3218851
  84.6526623  54.8592043  50.7872057  78.8838720  88.8453007  57.1648359
  79.1045809  88.2930470  56.4148092  78.6019278  88.2293224  57.8410864
 103.3990288  86.5426826  54.5867920 103.8329506  86.7489338  55.4146862
 102.4744987  86.7315483  54.7473860  29.4967177   7.8729820  92.0513535
  30.3267195   7.5716972  92.4208736  29.3091872   8.6881256  92.5167656
 105.6537628  77.5259542  63.7529421 105.3861618  76.6706514  64.0892220
 106.3534737  77.3300838  63.1298304  66.8751291  17.9359180   3.3148682
  67.4034074  17.5998861   2.5908291  67.4998239  18.0609829   4.0292561
  80.8922386  57.9741192  54.9886990  81.4567280  57.7991104  54.2357302
  81.1358833  58.8557148  55.2709293  92.3532104  28.7391901  81.7261410
  92.5725365  28.0371547  82.3387432  92.3558044  29.5331287  82.2608185
   2.8719474  59.9991989  45.6185913   2.2230579  59.9748564  46.3218641
   3.5816433  60.5393696  45.9661102  96.0509014  64.0297890  80.2952385
  96.5631676  64.4829845  80.9648895  96.5585899  64.1383314  79.4910574
  82.5345135  73.5266018  70.0901175  82.1769238  72.9501200  70.7654142
  83.3320618  73.8853884  70.4792452  78.5780764  52.8745651  37.5430989
  79.4166231  53.1805325  37.8887272  78.7856531  52.5434113  36.6693258
  79.9917555  63.0673647  56.5359688  79.2033577  63.3870840  56.0972786
  79.7002077  62.2941065  57.0189810  14.7510673  77.1876907  49.4836235
  14.4173195  76.4482546  48.9756012  15.0962402  77.7928925  48.8272572
  60.2535108   0.6495315  15.4673016  59.3599180   0.9250576  15.6717598
  60.4053548  -0.1087015  16.0314476  92.8600788  57.0398855  72.6103020
  93.1315899  56.1221695  72.5927877  92.2799778  57.1035910  73.3690262
  84.1061497  80.0693321  81.0050297  84.4199276  79.2499542  80.6224155
  83.7064838  79.8086166  81.8348026  75.2341080 104.9297237  48.3806658
  75.0832462 105.0082493  47.4386978  75.5971193 104.0511417  48.4926653
 105.1846504  50.8982086  60.9190035 105.1697731  50.0266838  61.3145494
 104.2691612  51.1776876  60.9207392  82.0783234  50.8990622  85.7118225
  81.8798923  51.2212420  84.8325920  82.8446198  51.4036894  85.9845448
 102.0301056  87.4737835  42.0914173 101.9243240  86.5280628  41.9882202
 102.2596550  87.7860260  41.2161779 103.9868259  78.6199427  61.0044098
 104.3342113  79.4797087  60.7670021 103.6186981  78.7436104  61.8792915
  79.6767521  63.8953114  48.6933756  80.3125095  64.3199682  48.1174374
  79.8282862  64.2920113  49.5512199 100.0530815  69.1697741  76.1045551
 100.0394440  69.3956995  77.0346117 100.0743008  68.2129049  76.0908079
 108.4845257  66.4540482  85.4958057 108.2185173  66.2485361  84.5995712
 108.5798645  67.4064445  85.5049229  82.4133110  81.6840267  57.3495007
  82.8940392  81.9625473  56.5700436  82.0892334  80.8101368  57.1314859
  97.5886440  49.8514271  88.3080006  96.8416023  49.9489307  88.8984776
  98.3436966  49.7628307  88.8896275   0.4823639  50.8334827  83.0520725
   0.3635551  49.8885107  82.9564285   1.3925506  50.9334373  83.3309746
 102.0930958  77.9081249  46.2797117 101.2773800  77.5111103  46.5850210
 102.7499866  77.6250648  46.9157934  79.4656467  77.3290777  65.0621128
  80.1042461  76.8583155  64.5265627  78.7479019  77.5268650  64.4604874
   0.6091072  66.4293003  34.1598248   0.9032013  65.5263281  34.0399170
  -0.3358506  66.3575411  34.2945361  85.9648514  76.0414171  44.8018789
  85.1119709  75.7294226  44.4994068  86.3737106  75.2728128  45.1997709
  69.7752476  86.0965538  75.2724648  70.5198193  86.1140347  74.6711826
  69.2310143  85.3742886  74.9588299  97.9333782  78.0039549  73.7884998
  97.0909214  77.5831509  73.6169910  98.2755566  78.2175159  72.9204369
  76.7374945  47.2154808  30.3591561  77.0545816  47.3919773  31.2448955
  76.2600613  48.0078650  30.1133466  31.8198730  40.1802921  67.1877670
  31.7852737  41.1014366  66.9298267  32.2515632  40.1868439  68.0420637
  99.5345879  69.0572882  47.2946358  99.8052502  69.7623873  46.7065763
  99.3233299  69.4991398  48.1170511  85.7479572  42.5123405  80.4858494
  85.5538177  42.1664286  79.6147060  85.4209900  43.4117174  80.4647636
  61.3268566  72.5198507  44.7792482  62.2701216  72.6571369  44.6918964
  60.9610653  73.4022665  44.8406458  95.5091763  73.3139896  78.0215216
  94.7873211  73.6614418  78.5453749  95.1823425  72.4785900  77.6875782
  95.7872295  87.6522255  82.2967720  96.4518070  87.0118427  82.5506878
  95.4666424  87.3417759  81.4499664  91.9133663  68.7287903  85.3553963
  91.0498810  68.9505816  85.0069141  92.2026825  67.9869127  84.8242188
  76.8843508  72.3536873  58.5127926  76.1275148  72.6168919  59.0363836
  77.4067736  71.8106413  59.1030598 110.1436043  73.4979343  80.7591248
 110.1070309  74.4105673  81.0454845 111.0744572  73.3301449  80.6121635
  95.3035736  70.4862833  80.8228970  95.3813171  71.1075115  81.5469551
  96.1245823  70.5780077  80.3394127  80.4912281  71.7457724  76.4577818
  81.0129547  71.5996504  77.2468853  79.5840788  71.7190599  76.7620707
  94.0334034  73.7629700  73.8227606  93.3522701  73.0924559  73.8746166
  93.6354637  74.5395613  74.2161751 100.9060574  81.4647293  58.8162374
 100.9124660  81.7785454  57.9119682 101.4493084  80.6767845  58.8001728
   2.8543712  64.4455862  75.9489298   2.7119686  63.9614868  75.1355410
   2.8164341  63.7785721  76.6344118  37.2231916  20.6728489   1.5849411
  37.6820281  21.1180431   0.8725464  37.0341018  21.3655788   2.2178757
  90.8928871  87.6709747  70.0850487  91.5460968  87.2508430  69.5255566
  90.4286766  88.2715225  69.5018768  89.1338730  94.3067074  47.0841408
  89.3453789  94.0298939  47.9756927  89.8202610  93.9164925  46.5429974
  87.9154587  84.5328712  42.3151684  87.4529648  84.8058033  43.1075287
  87.9828835  83.5812283  42.3929787 108.9912749  71.0201414  17.8502857
 109.5100785  71.1854858  18.6375153 108.3938742  71.7660697  17.7960884
  80.5756760  83.2823849  71.5981340  80.1156712  84.1181564  71.6763353
  81.1061001  83.3740711  70.8066368  72.6483107  64.9065351  84.6700191
  71.9269419  65.0695038  85.2777100  72.7058363  65.7059240  84.1466618
  94.5298862  70.7434893  77.6823902  94.0148640  71.0866165  78.4126282
  94.0503120  69.9664164  77.3953390   4.0477134  32.8501558  43.1398153
   3.8723423  33.1229091  42.2392178   4.9675895  33.0729747  43.2827330
 109.5861721  93.6501789  85.6833935 110.1044273  92.8741169  85.4703808
 109.7029495  94.2301273  84.9308968 103.9069939  48.3166218  76.3379955
 103.0572701  48.0103111  76.0211706 104.2774296  47.5627279  76.7969704
  13.6436702  56.7812252  67.7027178  13.9493705  56.8327045  66.7971087
  13.9334728  57.6022768  68.1003714  84.6322727  46.0146713  88.7538338
  84.4574928  46.0571575  87.8136921  83.7649155  45.9841728  89.1575623
  82.6289749  46.4424086  60.1558924  83.4046936  45.8895206  60.2496910
  81.9826508  45.8782434  59.7313690   9.8453238  17.8814887  74.1337061
   9.8813345  17.1511936  73.5159731  10.0897314  17.4958515  74.9750042
  42.2085527  21.2030107  12.0188152  41.5897754  21.1704857  12.7483952
  42.9100183  21.7777664  12.3251354  80.6188393  41.4360285  63.7901688
  80.3714275  41.5369272  62.8710175  79.7883749  41.3108587  64.2493963
 104.5933533  19.4385052  70.8697701 105.1861000  19.9176812  71.4487934
 105.1009083  19.2980528  70.0704670  42.6198724  20.7058269  25.0222885
  42.5219777  20.7431299  24.0708363  42.4372247  21.5980179  25.3170216
  98.7656975  62.4889898  81.5251350  98.1248093  61.8051720  81.7197704
  99.4145107  62.4153900  82.2250366 100.5365849  93.0709267  87.3112488
  99.7674561  93.4463882  86.8826485 100.3122997  92.1495342  87.4414921
 107.9691505  30.1287889  77.2839499 108.7365532  29.6989393  76.9063902
 107.3390293  29.4205832  77.4167061  56.7787412  15.1698477  16.6871369
  56.9404271  15.7829506  17.4042141  55.8675721  15.3263313  16.4390862
  77.7540353  29.4536096   1.4284050  78.6980489  29.3439753   1.3141358
  77.5598577  29.0113909   2.2548306  70.6661987  66.5425634  43.5375977
  71.3159704  65.9933567  43.9762259  69.9095726  66.5330219  44.1238213
  97.1145344  81.2156582  70.0337505  96.6529083  82.0264626  69.8198795
  97.4519062  80.9035110  69.1941214  87.9652119  72.7901220  15.7331300
  87.9481888  73.3922815  14.9892581  88.5052586  72.0577526  15.4361272
 100.1909351  47.4429607  50.1491880 100.4375362  46.5758657  50.4710007
  99.4066715  47.2888422  49.6224976  32.0449592  64.4875669  33.8482285
  31.3937809  64.7958755  34.4784236  32.3113777  63.6298752  34.1793203
  82.1304321  60.5754328  74.1163445  82.6253128  59.9335337  73.6071396
  82.7816391  61.2255812  74.3799019  76.1600637  64.8887491  62.9020071
  75.2652884  65.0416851  63.2056761  76.6173267  65.7105017  63.0805206
   7.8402378  77.0631123  47.2644949   7.3516990  77.3417044  46.4899349
   7.1739914  76.9618320  47.9442739   9.0441181  63.6400223  45.1222563
   9.8978855  63.8401031  45.5060291   8.4346344  64.2204857  45.5781412
   4.8220398  68.1421709  61.1821270   4.8760177  68.6755514  61.9751120
   4.6524002  68.7715864  60.4812050 112.8143978  80.4356384  39.3142843
 112.2852707  81.0068321  38.7575197 113.4845638  80.0838852  38.7282896
  85.8089447  65.9993029  59.1202021  85.2189445  66.7064571  58.8593149
  86.2746239  66.3446283  59.8818636  83.1748486  70.6032181  77.5416136
  83.3788681  70.0129461  76.8162251  83.0955505  70.0285435  78.3029890
  80.5561307  28.9091761   0.7868588  80.3357080  29.5586664   0.1191723
  81.3081888  28.4400160   0.4255593  45.1208547  16.4134867   6.3647568
  44.3492177  16.3557465   6.9282162  45.8020833  15.9400541   6.8422711
  80.4610443  66.6848898  40.8589935  79.8970699  67.4565744  40.8073568
  81.3144302  67.0291138  41.1225748 108.3556652  94.2871284  41.7184305
 108.0869293  93.4209919  42.0247412 107.6065731  94.8516846  41.9091225
  74.9105600  16.3884241   2.8706562  73.9978555  16.5659553   3.0979931
  74.8996213  15.5014545   2.5109398  10.4285052  99.6418316   1.1093056
  10.6447794 100.4947503   0.7324898  11.2501910  99.1517193   1.0799420
  83.9987278  67.5864887  67.4324560  84.3558502  67.4858093  68.3148193
  84.6837521  67.2467947  66.8566179 110.2001476  76.6595793  60.3283882
 110.4907513  77.4916172  60.7018661 109.3014240  76.8256426  60.0438690
 101.6100407  92.1730804  84.2538071 101.6294289  91.7759323  85.1245213
 102.5282574  92.3532581  84.0522385 102.7109241  47.6061201  49.4136381
 103.0604649  48.3767843  49.8609924 101.7673779  47.6459885  49.5697212
  95.7461739  30.8916259  82.0496178  95.3347683  30.5076766  82.8239346
  96.6832066  30.8778453  82.2445679  41.1898616   1.1522133  12.7041447
  41.6140035   1.8668873  12.2291863  41.5364364   0.3569204  12.2996437
 103.5950756  73.9272451  86.6407967 102.8671837  73.4431410  87.0307255
 103.3454800  74.0370798  85.7232666   3.8342620 100.8002758  50.6631136
   3.6882450 101.3583374  51.4269733   3.4320976  99.9637985  50.8972168
 103.7007809  72.1211910  81.0825443 104.5105171  71.6126537  81.1267376
 103.2006550  71.7141867  80.3751183  38.4266046  53.2850248  12.2514259
  38.3364776  53.4683496  11.3162815  38.1336168  52.3788149  12.3471749
  80.3540707  63.9612150  42.1314955  79.4926596  63.9487743  42.5486755
  80.5340767  64.8892641  41.9813061  10.5159046  73.5202074  64.7650814
  10.8193447  73.4440470  63.8604546   9.5615722  73.5470295  64.6961403
  22.7982380  69.3750620  65.3077507  21.9062950  69.0457010  65.4181099
  23.3573200  68.6250401  65.5105591  23.4291937  86.0145266   0.8229839
  23.3081915  85.2701814   1.4125073  24.3634798  86.2150366   0.8790314
   9.5400478  88.0808926  54.7713280  10.1269390  87.3397923  54.6210861
   9.6649028  88.6439800  54.0074110 102.0770741  59.8478079  39.7950411
 102.7656364  60.5056763  39.8916388 101.9995213  59.4529676  40.6635571
   0.5996658  64.8008919  80.8712006   0.0376655  65.1238489  81.5755367
   0.0015976  64.6437407  80.1405525 103.9940643  89.2212296  21.0343170
 104.6833420  88.6361980  20.7199168 104.4269180  89.7729874  21.6858006
  72.3028231 102.7721310  76.6185093  72.8021860 103.3571529  77.1882629
  71.9106197 102.1342945  77.2148085   5.7230236 105.8994961  68.1236315
   6.4350750 105.3427029  68.4385633   6.1192848 106.7659569  68.0316162
  12.0428611  51.4046097  68.2534552  11.1092903  51.2904930  68.4313250
  12.4683811  51.2458229  69.0960407   5.2847244  82.4843502  67.6239443
   4.9754192  83.0841446  66.9451094   4.5152427  81.9622612  67.8509808
  88.0638218  50.6454468  75.3964186  88.5569000  51.0277224  76.1223459
  87.3113918  50.2252483  75.8129597  20.7033827   5.5477523  62.5394917
  20.3738501   5.5294322  63.4379959  21.5841200   5.9149932  62.6148415
  87.2474957  72.4569225  69.9064302  87.7729893  71.7656612  70.3092241
  86.8019009  72.0251369  69.1775751   1.2401249  38.4574914  60.5553389
   2.1504642  38.7367535  60.6529760   0.7853557  39.2334962  60.2278805
  17.3944713  63.0256176  72.9095554  18.2351829  63.4760809  72.8288031
  17.1478607  62.8154707  72.0088625  64.6065191  30.5472452   6.5197193
  65.1056150  31.1634714   7.0558273  65.2364877  29.8637278   6.2912762
  52.6593927  29.1127188   3.8336384  52.9417947  28.3185179   4.2872059
  53.1537011  29.1090376   3.0139553 101.3243771 104.4108200  61.1641169
 101.4368057 105.3507805  61.3057661 100.6699657 104.3500710  60.4682112
 107.0694447  80.5928612  59.7370481 106.4233017  81.1450958  60.1772451
 107.7871990  80.5164051  60.3657055  49.3201353  15.5130863  74.4296312
  48.9144804  14.7157382  74.7700787  49.3228629  15.3937244  73.4799099
  94.3451405  36.8662119  89.1262245  94.3493080  36.0731745  89.6622372
  94.1478539  37.5711322  89.7429848  81.9005349  33.9636690  13.7030899
  82.3853544  34.5443994  14.2895424  81.9556955  33.1031591  14.1186726
  75.7651663  98.5914421  53.7298346  75.0910187  98.4702682  54.3984699
  75.6646061  99.5014286  53.4504795  19.7276355  99.8418808  77.3660183
  20.4891826 100.4109573  77.4774790  19.0603496 100.2197742  77.9388762
  79.1825199  77.9386806  70.3685474  78.8755226  77.6052427  69.5254564
  78.3818960  78.1068659  70.8654881  93.5350132  63.2615662  50.4930019
  92.8890896  63.9124107  50.7676125  94.3020821  63.4411955  51.0366774
  12.3244621  85.9004688  77.7725649  12.7118064  85.0287628  77.8520966
  11.3889267  85.7368755  77.6532459  69.6174672  17.5088055  19.3696224
  68.9773610  18.0769188  19.7982895  70.2028802  17.2327501  20.0748264
  92.8213406  39.6362019  68.6822510  93.1918335  39.2371798  69.4694901
  91.9456768  39.2563152  68.6105824  83.4557724  81.6138458  38.3999228
  83.2894325  80.9761715  37.7057076  84.0579700  81.1678982  38.9955044
 101.6032124  41.4390326  81.8654156 102.1050072  42.0732546  82.3774624
 101.3410568  41.9191408  81.0799217 100.9470893   5.1268768  68.8377523
 100.2879144   4.4660377  68.6255932 101.7839290   4.6802329  68.7095642
   4.3499519  84.1511154  91.2666702   4.6930935  84.2742920  90.3816223
   3.5373069  84.6567059  91.2810040  95.4168606  70.6233120  73.4410763
  96.3061714  70.8023167  73.7465334  94.9962902  71.4826584  73.4113789
  90.5207253  97.6576614  59.4638777  90.6803417  98.0793571  60.3082275
  91.3854790  97.3672009  59.1739464  28.5370018  97.5989437  80.8510208
  27.6409389  97.4488354  81.1523151  28.4568264  97.7014637  79.9027109
  32.4282409 101.9574070  62.7938175  32.5134613 101.0559845  63.1043100
  31.6808178 101.9352436  62.1962357 106.0420227  82.9291058  84.7674561
 106.0077381  83.8831139  84.6973419 106.8024063  82.7569294  85.3227997
 111.9280052  63.5032225  78.4314156 111.2165356  62.9776287  78.0656385
 111.5421867  64.3690538  78.5645056 103.9490700  51.2268639  48.8620043
 103.9103889  52.1832800  48.8629532 103.4561825  50.9664488  49.6401262
  35.6312563  17.1941757  62.1215439  34.9574091  17.5997161  62.6671600
  35.3440955  16.2865924  62.0212793  15.1645328  71.4060688  72.7699804
  14.3110229  71.8014240  72.9473066  15.4788639  71.1200714  73.6276722
  11.4292575  50.9836578  58.2649183  10.6739856  50.6328106  57.7929974
  11.1300136  51.0629320  59.1706800  11.2078048  67.0631933  56.1276054
  10.7383777  67.4890804  56.8448830  10.8085109  67.4205685  55.3344631
  11.8113281  66.0020638  49.9465418  12.4951316  65.9396648  50.6134415
  12.2756054  65.8933926  49.1165590 102.8823185  95.9559822  32.2731900
 103.6064720  95.4242229  31.9429398 103.1282997  96.1620235  33.1750059
 108.3582592  62.8385639  70.5943012 109.2584610  62.5137806  70.6139040
 108.2111645  63.0815792  69.6802235   9.7343113  75.0801134  76.4633608
  10.0617935  75.0788689  77.3627996   8.7891723  74.9576330  76.5524149
 107.1103287  94.6958923  79.2400265 106.3639069  95.0577450  79.7176743
 107.2263813  95.2853489  78.4948349  99.7811604  34.7977805  85.6167507
  99.8153687  34.0154362  86.1672020 100.0865936  35.5044246  86.1856079
  30.7164432 104.0287876  81.7209625  31.0165836 104.8952579  81.4464283
  29.8086502 103.9835548  81.4208031  11.4099075  80.4652691  31.7451930
  12.2225143  80.3930092  32.2458768  10.7210209  80.4921341  32.4092293
   4.5514824  74.7512722  52.0593739   3.7385131  74.9178457  51.5823317
   4.3657352  73.9729977  52.5847483  58.9845517  47.2647364   9.0244686
  58.3953145  47.4582941   9.7535526  59.5862058  48.0087740   8.9987385
 110.0560904  88.6234672   7.1617615 109.8011113  87.7097518   7.2896015
 109.5117617  88.9244874   6.4342129  54.3408394  95.6219482  51.5443039
  55.0703907  96.2413025  51.5641928  54.3463802  95.2738857  50.6526470
 106.7390300  -0.2666188  36.1092114 106.2857486   0.1362037  36.8498206
 106.8937589   0.4562759  35.5011702  63.9736845  10.6193923  88.1554413
  64.2797759   9.7528171  88.4230137  63.8144972  10.5373859  87.2151470
  79.0890598  75.1125002  56.8128633  78.8567448  75.3210783  57.7177143
  79.6619606  75.8296156  56.5412807  93.8520718  71.5711975  90.9262371
  94.0669060  72.4186659  90.5365276  92.8952885  71.5533113  90.9481907
 104.5603943  86.1363983  62.9627132 105.1343155  86.2680531  62.2080517
 103.6859322  86.3530445  62.6392841  18.1610443 101.3900566  78.9801073
  17.2199108 101.4911461  78.8377237  18.2444145 101.2197208  79.9183321
  98.1176758  74.0103054  83.3429050  98.8478184  74.6264362  83.4020329
  97.5958443  74.1813612  84.1269112  18.1474353  59.0079117  67.8103590
  19.0207817  59.3660831  67.9691601  17.7970077  59.5392561  67.0954418
  10.7340862  34.9844170  67.8597164   9.9739410  35.3510714  68.3113480
  11.4680626  35.5280042  68.1461334  82.9430485  66.8747425  60.5688381
  83.1361198  65.9557104  60.3835440  83.3756638  67.3571348  59.8643017
  80.7712320  40.8757193   6.8349468  81.0770562  41.6940958   6.4438450
  80.6832174  41.0740168   7.7672398  91.2203407  62.1988440  37.7880979
  91.3557529  63.1132603  38.0365729  91.6285706  62.1220016  36.9257355
  10.5856659  97.3596382  77.5457430  10.4737236  96.7922306  76.7830229
  11.3859321  97.0427895  77.9645824 108.6189938  75.2234697  52.1077681
 108.1417274  74.9188232  51.3359880 109.5179558  74.9268341  51.9659996
   9.9463370  80.4262168   1.6516030   9.6335413  79.6270926   2.0756161
   9.1506388  80.8644946   1.3499176  24.3910457  53.6748457  60.4336786
  23.4908821  53.9971924  60.3886700  24.3195964  52.8247070  60.8677149
  94.3705082  21.2130141  52.9095507  94.4256496  21.4538646  53.8343096
  93.5121155  21.5311670  52.6299620  26.2730838  58.1448078  90.9025955
  26.1023761  58.0265093  89.9682045  27.1737148  57.8432560  91.0215950
 107.0939541  53.0618572  72.1898365 106.8048191  53.9437342  72.4242115
 107.6011372  52.7671528  72.9462337  15.3375484  80.8234882  90.2922249
  14.6419479  81.3490200  90.6874275  15.8889915  80.5624771  91.0298061
  77.4969387  64.0632200  55.4806900  77.9954100  64.1342831  54.6666193
  77.2055674  64.9568081  55.6619024 106.6380978  69.7748041  55.7130051
 107.5524521  69.5662642  55.5214214 106.6033936  69.8456287  56.6669512
  82.1216965  90.6875610  48.2781506  81.3319492  90.8455563  47.7608776
  82.0889950  89.7537804  48.4860754  14.8649360  59.9506474  48.3872271
  14.4772579  59.1898918  48.8198853  14.2301036  60.1918840  47.7126789
  87.1068573  67.9241276  70.6546354  87.5904655  68.7389135  70.5186796
  87.7704716  67.2967243  70.9413624  27.7870990  73.9813995  77.3835611
  26.8464805  73.9150286  77.5480556  28.1647731  74.1966772  78.2363510
  68.5707762 101.8800671   2.8993904  69.4625666 102.2238476   2.8468239
  68.4346106 101.7089398   3.8312733  22.6763393  57.1216965  53.4019566
  22.8540756  56.2435007  53.7387228  22.2831585  56.9733858  52.5419331
 101.1650181  66.3368273  74.1950989 102.0727444  66.4082527  73.8998842
 100.6919861  65.9977484  73.4351683 112.1742345  94.3356640   6.8673336
 112.9418231  93.7638838   6.8568813 111.5039969  93.8284810   7.3253548
  22.9916050  98.2966614  47.5119686  22.2533943  98.6259460  48.0246639
  23.7197639  98.2666302  48.1325388 108.0021954  52.7778625  85.3930664
 107.4300957  53.4931993  85.1151562 108.2320118  52.3257828  84.5812511
  75.3389788  68.9375114  60.3669786  75.8341408  69.3628263  61.0670853
  75.9605217  68.8675976  59.6423912 109.2831326  69.3438292  79.1502857
 110.1894379  69.6463728  79.0926504 109.2177486  68.6557674  78.4880733
  86.0316423   1.4751226  16.8508923  85.2702287   1.1201031  16.3921559
  86.5986303   0.7176525  16.9957840  90.7881165  90.9065247  29.3683076
  90.5038357  90.7008457  28.4777403  91.7295837  90.7336998  29.3651295
   3.9962532  74.9985266  28.2211304   4.5604374  74.3447971  28.6341286
   4.5504428  75.4076099  27.5564861  82.3348522  92.9003429  61.3204193
  82.9465199  93.2614899  61.9620323  82.1668911  92.0086288  61.6251564
  96.3355637  62.2141933  61.7651701  96.0293579  61.3184834  61.6231489
  96.0908413  62.4104166  62.6695156  13.3636905  84.8120403  31.9710565
  12.7680542  84.7591686  32.7184892  12.8226139  85.1490307  31.2569785
  89.7099590  84.0059662  85.0266171  90.3889084  83.5357285  84.5427513
  89.6012402  84.8282146  84.5487881  26.9813778  71.9113445  87.0545959
  26.3725998  72.1398020  87.7570343  26.5564014  71.1868525  86.5955353
   0.1882316  72.0644331  74.3819046   0.8170749  71.3433361  74.3535519
   0.4659034  72.6521444  73.6792517 103.5672569  73.3575630  52.9161978
 102.8460407  73.4891367  53.5316372 103.5343075  72.4246454  52.7045107
  90.9381294  73.6680984  46.3770103  91.4483070  74.1972589  46.9901514
  90.1080990  73.5128164  46.8277597  97.3760033  63.0367851  84.5842457
  98.3033848  63.0747461  84.8182487  96.9144726  63.1540155  85.4146004
  82.7548459   3.1764299   5.0159943  81.8396333   3.1010849   4.7458946
  83.2545522   2.8901560   4.2514145  42.4138548  13.3324623  79.2215824
  42.4514964  13.0391311  80.1319504  41.7003348  13.9702987  79.2047644
  89.1724300  22.2143054  56.7035532  89.9265289  21.7877555  57.1105146
  89.4653130  22.4232984  55.8165455 103.5448551  52.8848076  74.4840384
 104.0224838  53.6575985  74.7855186 103.3508968  52.3960018  75.2838373
   2.9927684  64.9304867  67.4480200   2.5673153  65.5026531  66.8093920
   3.1463768  64.1137981  66.9729805   5.1523925  74.6759415  89.5134258
   5.5733539  75.4411936  89.1217518   5.3502132  73.9590740  88.9107609
  71.3250211  40.8975584   2.4059117  72.2395852  40.6175787   2.4435818
  71.0814431  40.7969267   1.4857113   3.2209255  97.5265408  81.6204166
   3.5971214  98.3857059  81.4292717   3.9164974  96.9064426  81.4015579
 108.1093979 100.4881001  72.9926395 107.8029919 101.1929798  73.5631609
 109.0246296 100.3592205  73.2415724   9.0953685  61.0981035  44.2928505
   8.8458683  62.0088959  44.4491625   9.0438224  60.6843901  45.1544857
 110.5102921  50.2112865  63.4231853 110.9031296  51.0719872  63.2779074
 111.2331104  49.5950413  63.3048725  67.9477838  42.7289183  14.2849648
  68.2111409  42.6507742  13.3680260  68.4280160  43.4913523  14.6079361
  86.5641880  45.8653069  70.2470255  86.3867188  45.5652332  71.1384821
  87.1235943  46.6337776  70.3598881 107.4082279  75.0767374  58.1079388
 107.3205090  75.9449625  58.5012913 106.6703606  75.0128603  57.5015497
  75.6684926  11.1189825   5.7378208  76.3265756  10.9747202   6.4177811
  76.1761239  11.3279135   4.9536812  99.1602230  76.8350840  43.1902695
  98.8033581  77.3426533  42.4614000  98.9046478  77.3255587  43.9715099
 106.0380268  81.7930698  72.0691204 105.5562973  82.5608730  72.3767614
 106.9502831  82.0808220  72.0342350  52.3161367  63.8371069   0.1917946
  53.1646684  63.3958704   0.1525986  51.7385534  63.2076151   0.6235039
   1.9507362  99.4865227  39.8528051   2.8231670  99.8284149  39.6573234
   1.9771053  98.5776520  39.5536828  85.6231594  28.8806987  65.5094242
  84.9324036  29.4741607  65.2146530  85.6197453  28.9640427  66.4629841
  39.9294188  18.0205917  21.7514467  40.3129866  18.3974361  20.9595537
  40.5014040  18.3173751  22.4592447  76.8861726  16.4737064  26.5986359
  77.0038560  16.7377645  27.5111305  76.1929372  15.8143026  26.6276085
  85.6771660  45.8010244  29.3211102  86.5123367  45.3928661  29.5494366
  85.1156616  45.0697994  29.0637231  97.5562668  66.8136835  70.6001091
  97.8985214  67.4930239  71.1811352  97.4168110  66.0581589  71.1710405
  10.4308082  16.7395484  79.8885107  10.1303913  15.8314764  79.8512793
  11.0938121  16.8008673  79.2008352  55.3255418  37.7855379   7.7158081
  55.4742482  38.5465033   7.1545136  54.7031167  37.2461492   7.2280895
 112.4276353  32.1045780  69.5381403 111.9054986  32.7333831  69.0399265
 112.8629399  31.5732479  68.8714886 109.5421791  75.9741163  30.9551620
 108.8054180  75.3653145  31.0078263 110.2158928  75.4937410  30.4739285
   2.6711036  53.4602928  48.7594223   2.7765514  53.1189203  47.8714037
   3.4854557  53.2257652  49.2044544  26.1724044  55.0642681  62.5884819
  26.3553764  54.3667984  63.2179928  25.6417228  54.6433306  61.9121552
 109.7221184  73.6191225  49.2233181 109.4132996  74.5143795  49.3625307
 109.5088863  73.4316301  48.3092022  21.6664745  89.5465374  50.4616594
  20.8386280  89.0680313  50.4176617  21.8995048  89.5371342  51.3900137
 105.1138783  72.5292492  65.3464031 104.4513893  71.8384838  65.3601837
 105.7272720  72.2867012  66.0400581  53.5532000  94.6339400   9.7835076
  53.1906130  95.4666312   9.4811928  54.2002394  94.8803170  10.4444611
  74.6756601  76.2246990  59.6795893  74.7320509  75.3155804  59.9737787
  75.5148363  76.3898325  59.2497587   8.9851766  28.0807192   7.7795803
   9.0767865  29.0334875   7.7709305   9.8829656  27.7532846   7.7246773
   6.6706993  76.9890308  75.5278540   6.7295505  76.3112497  76.2011957
   6.9545700  76.5534830  74.7241449   0.0150730  85.6313229  43.0587482
  -0.0272606  85.8556080  43.9883375   0.0364448  86.4761543  42.6092625
  77.4535656 105.9198856  69.3617582  77.0150995 106.7342758  69.6082258
  76.8644476 105.5135727  68.7260818 104.1595364  86.5141392  50.6104279
 103.4081650  85.9755039  50.8585119 104.3667221  87.0143318  51.3998079
  62.1342945  88.4470749  27.2285032  62.5017262  87.6537704  27.6182270
  62.0763874  89.0665913  27.9558873  76.0649204  78.4196186  50.3593683
  76.8624163  78.6960316  49.9078941  75.5820322  79.2319584  50.5115366
  88.9025307  62.8199005  72.0448971  89.4940186  63.2305288  71.4142084
  89.2933369  61.9632673  72.2171831 100.8898926  83.8788128  68.2050180
 101.1299038  84.5745277  67.5929642 100.6365967  84.3400860  69.0045834
 112.7319336  89.8296547  79.5286703 112.7758598  89.8291492  78.5724783
 113.2063866  89.0406799  79.7906542  91.3024235  64.7495270  66.2937069
  90.9735775  65.5570221  65.8986855  91.6522026  65.0229073  67.1417332
  17.3271468  12.6601695  78.7440777  17.6356223  12.1630954  77.9864550
  17.7154257  13.5282802  78.6352205  91.2510064  53.7909967  10.7309544
  91.3634637  53.7742884   9.7805321  92.1093610  54.0459616  11.0692513
  89.6769384  33.5740930   3.2419407  89.3948892  32.8858072   2.6394856
  90.2630475  33.1303961   3.8549912   8.3542301  78.2141924  66.6554689
   9.0498878  78.5326529  66.0802507   7.8094055  78.9835835  66.8210936
  12.3857357  68.2673931  73.8374138  11.9245960  68.8480568  73.2320929
  12.7341987  67.5701475  73.2818460  66.2599233  36.9131071   9.3964588
  66.5659478  36.7227537  10.2832234  66.9913438  37.3727590   8.9841759
   3.5780765  94.3881321  80.1219177   4.0604831  94.1681480  79.3249702
   4.2383339  94.7602844  80.7065392 112.0578003  53.9988327  60.8820915
 112.6950550  53.8818312  60.1775026 111.7670345  54.9065161  60.7937622
 111.4043713  42.7836275  80.9118938 112.2512627  43.0985212  80.5959034
 111.2425804  43.2896805  81.7081070  95.6642246  99.3672466  39.4280124
  95.9733009  99.5282841  38.5365129  95.9648991  98.4810829  39.6293449
  20.0257827  70.6564379  70.2032137  19.4158222  70.4846478  69.4858074
  19.7031070  71.4636660  70.6038284  57.0540479  23.2942469  14.3695080
  57.6853040  23.9271290  14.0271485  56.8608335  22.7227194  13.6263668
  92.5500107  81.7849541  61.3133478  93.4732056  81.5819550  61.4641190
  92.3040104  81.2402630  60.5656672  68.7390425  22.1961116  56.0659218
  68.4237578  21.5454864  56.6932249  68.3753397  21.9151687  55.2262640
  11.0144950  94.3384933  62.9482365  11.4301540  93.7663269  62.3031855
  10.5189277  93.7440968  63.5115576  22.1109869   7.2039413  41.1105728
  21.4626696   6.5295886  40.9076929  21.6130545   8.0214214  41.1145639
 111.2761593  73.1418610  69.1612291 110.8636951  72.6852369  68.4280205
 111.7579746  72.4591064  69.6280718  68.2958841  73.6364460  69.2297029
  68.3895969  73.3366537  68.3255053  69.1838026  73.6046314  69.5858288
   0.6100895  75.1796007  90.1719761   1.1936618  74.8562860  89.4855690
   0.0637962  75.8323240  89.7340775   5.3252842  57.9798031  63.8296175
   4.5678856  57.4315929  64.0346813   5.5767013  58.3646965  64.6691895
  27.8106166  69.5909214  55.7450056  28.1976749  69.2812872  56.5638733
  28.5608627  69.8309660  55.2011824 100.2749729  50.0185061  67.1527481
 100.0179577  49.1886902  66.7507839  99.9739838  50.6864262  66.5366983
 107.5131130  36.4858651  63.0870152 106.9676018  36.8454289  62.3874664
 107.0126915  35.7421398  63.4226990  80.9622860 103.8390732  67.3441744
  81.2818909 104.4091129  68.0435514  81.4044952 104.1554451  66.5564060
 103.3689976  20.4527068  42.9073620 104.2788792  20.7446837  42.9629850
 103.0159760  20.6004739  43.7847233  30.7909396  17.7892017  42.2260666
  29.9106791  17.8736400  42.5924587  31.1956789  17.0865344  42.7346611
 111.9992924  68.3942127  86.9925213 112.8734493  68.7691593  87.0996761
 111.7103577  68.2014608  87.8844833  22.9202892  88.5702801  59.5650101
  22.1145870  88.4344578  60.0636435  23.5538341  87.9759502  59.9670267
  13.4167864   1.8691253  89.4214153  13.8458731   1.8911266  90.2767658
  13.4938242   2.7644443  89.0917015   0.9276058  66.0889482  50.6902933
   1.3327362  66.5381432  51.4321280   1.6646625  65.7309484  50.1954985
  15.4107334  79.2894506  82.0723724  16.0752822  78.6199474  82.2347450
  15.7734729  80.0859451  82.4600029  45.8651593  83.7295515  10.2109825
  46.0045007  84.0579969   9.3227684  46.3775209  82.9219992  10.2508557
 102.2153473  64.4258785  62.2956753 101.6212082  64.9967289  62.7828741
 102.0757675  64.6617270  61.3785458  22.0338585  83.3179379  55.4872990
  22.8624679  83.5162735  55.0510550  21.4316513  83.1079388  54.7735214
   1.1918975  69.4829845  87.1314716   1.5024044  69.3565273  88.0280304
   1.7700435  70.1549578  86.7703152   0.1758625  50.7316446  65.4610729
   0.5987217  51.4419079  65.9437180   0.6962539  50.6415224  64.6627617
 100.8113956 103.8809490  63.7469530 100.8096981 104.0161037  62.7993441
 101.5163231 104.4433975  64.0678453  12.6716854  60.3185749  33.6687541
  13.2931282  61.0405493  33.5749865  12.9531433  59.8617125  34.4614053
 104.9398566  25.4976844  62.6001692 105.5650426  25.0431537  62.0355701
 104.6428777  24.8281383  63.2164001  32.9162314  12.9342365  60.8191442
  33.4895327  12.4476241  60.2268934  32.0627024  12.9270648  60.3859186
 106.5580559  74.4045830  80.5713463 106.4135456  73.4614468  80.6477928
 107.1829605  74.4935846  79.8517561  70.8386377   4.1966087   9.1013252
  71.4802602   4.8879225   8.9380943  69.9911454   4.6376497   9.0424454
  99.7581959  93.9011765  74.7215271 100.6607151  93.8534451  75.0368309
  99.4609356  94.7743034  74.9774790  14.8976947  66.0973263  67.1711636
  14.0705635  65.7446146  66.8430281  14.9253894  65.8281851  68.0893278
 108.7914944  98.6283302  57.4404001 109.5331955  98.0517960  57.2567654
 109.1411114  99.2833519  58.0445147  28.5453083  78.8304853  70.7735395
  29.2773964  78.2790852  71.0496330  27.9031707  78.2158709  70.4183769
 102.5986958  78.1989813  86.6381741 103.5202885  78.0929279  86.4022732
 102.3447323  77.3498201  86.9996357 113.2877445  39.9024177  79.7652864
 112.4888229  40.2302170  79.3523741 113.0950356  38.9866352  79.9663734
  56.2986567   0.8736801  63.1838179  55.4980185   0.4398250  62.8888941
  56.2114527   0.9156894  64.1361094  27.8780940   2.3396587  63.8498068
  28.8309195   2.3147487  63.9377689  27.5848963   1.4899349  64.1787958
 101.9132710  85.1107883  59.1771603 101.2206078  85.2339268  58.5280943
 101.4554596  85.1045799  60.0177574  72.8012514  97.0288277  47.4089622
  73.2212639  96.2797451  47.8316927  72.3743105  97.4994755  48.1248140
 111.3545132  74.7183704  51.2035084 111.9583702  74.0092373  50.9827852
 111.8070126  75.2147245  51.8854904  90.3354931  77.0059967  79.7780132
  91.1776352  77.2854328  79.4189167  89.8467731  77.8194332  79.9033070
 101.2877655  62.6405907  56.1103725 101.7984200  63.3973551  56.3980818
 101.1108875  62.1514893  56.9139433 105.5208874 100.3159237  75.7692242
 104.8500252 100.0831795  76.4110947 106.3478470 100.0864601  76.1931562
 106.7448139  99.0274334  79.9584961 107.3593044  99.5053864  80.5154419
 106.7617035  98.1320858  80.2965641  97.2672081  86.2676239  48.1898260
  97.6079082  87.1051884  47.8757668  97.8891277  85.9936714  48.8639164
  53.7071898  12.3819541  43.3927965  53.4229853  12.6183128  42.5098562
  54.1007712  13.1824207  43.7400484   4.6827270 100.3015423  46.8557692
   4.9370720  99.4169331  47.1184492   5.4714538 100.8271694  46.9894123
 111.6715813  77.0687628  49.0890312 112.3822117  77.2106123  49.7144222
 111.2472439  76.2642002  49.3871117  17.1154930  51.4294672  81.9793987
  17.0298244  51.3762379  81.0275269  17.6793911  50.6914186  82.2107792
   1.5630390  62.9859543  57.7215862   0.7714702  63.5086584  57.8497553
   2.1439315  63.2522821  58.4342384  32.8309634  39.9325370  78.3974600
  32.5317099  40.8409595  78.3592653  32.6570036  39.5860671  77.5222874
  33.8060763 101.6858227   4.7891819  33.3958056 100.8223946   4.7401917
  33.1442263 102.2853835   4.4446289  96.8515015  67.5326824  65.1720572
  96.3537025  66.8475389  64.7259617  96.1928940  68.1771898  65.4310608
  22.3630717  97.4290688  19.8207104  23.1374648  97.8947051  20.1365006
  22.1465399  97.8581889  18.9929402  72.7402020  98.8905334  83.4352589
  73.5389519  99.3724060  83.2207203  72.7254677  98.1625557  82.8139114
 102.4668884  74.9820614  59.7661257 103.0436420  75.7435560  59.8270464
 102.5720215  74.6733618  58.8661909  20.1508667  79.7021675  85.1150990
  19.2069675  79.8082972  84.9966621  20.5106212  79.7532320  84.2295456
  48.6987593  24.4639205  30.5265379  48.5974886  24.1327381  29.6341825
  47.8833010  24.9335670  30.7016969   2.6229622  65.5862093  56.5563822
   1.7424537  65.9534454  56.6343069   2.5714637  64.7429609  57.0063925
  12.5658084  83.2490635  56.5832996  13.0046226  82.9313755  55.7941580
  12.7428295  84.1896915  56.5935850  96.5152073  84.7441673  78.5901499
  97.4572277  84.6914959  78.4287262  96.1535549  83.9743137  78.1511021
  67.2144082  73.3624250   2.3544895  67.8545430  72.8762323   1.8347943
  66.7051557  73.8530428   1.7093670  17.8058817   1.6012191  84.6076965
  17.9818156   1.9746971  85.4712963  18.6199572   1.7296123  84.1208553
  21.8990280  80.1817703  63.9640474  22.4395992  79.9708319  64.7253084
  21.5740921  81.0651016  64.1383839  47.9256585  56.3646871  12.5872814
  47.8302148  56.1604292  11.6570103  48.1787446  55.5340940  12.9901325
   7.8156044  81.6845036  87.6375294   7.7041771  82.3349667  88.3308601
   8.5483886  81.1436558  87.9320431 103.3744335  23.9941525  87.4044514
 102.5760937  24.0760970  86.8827438 103.3527374  24.7468996  87.9953194
  12.9911902  14.5313358  80.5809593  13.3239176  14.3022251  81.4487362
  13.7527564  14.4588661  80.0056362  10.2062370  65.1947737  81.0218334
   9.2620327  65.3519154  81.0269547  10.2925922  64.2610121  80.8298397
  91.4253190  61.0325415  12.1431172  91.0817579  61.6651232  12.7740204
  90.6531575  60.5582792  11.8347752 105.5550671  88.0501270  29.1275883
 105.8463955  87.8585911  30.0190330 105.0957203  87.2574806  28.8502145
 102.9206467  81.5400791  74.4013309 103.4168434  82.0957184  73.8002586
 102.1619606  81.2544250  73.8923836 102.6451397  53.9265537  69.6004629
 102.8011608  54.8222685  69.3011570 103.2690239  53.8008547  70.3154516
  -0.2256153  87.1408176  81.4363289   0.5502178  86.9191360  81.9512749
  -0.2419041  86.4893532  80.7352066  27.5884535  17.5381088  61.3443947
  28.3858302  17.9378414  61.6917038  27.8455641  16.6426753  61.1245871
  66.2434057  40.4059393  23.2656967  65.6550554  39.8027784  23.7198746
  66.3622812  41.1315519  23.8785374  52.6131823   0.3089237  58.3796215
  53.3611300  -0.0166798  58.8804007  52.3813727   1.1345577  58.8048506
  57.0862391  16.7488002  59.4452715  56.6055872  16.1406612  60.0068617
  57.8453162  17.0081329  59.9675465  79.3884563  68.1641340  90.0835037
  79.5377636  67.2187710  90.0983429  78.8743401  68.3129835  89.2899227
  39.1884329   2.8414153  80.4242325  39.7191336   3.0890083  81.1813927
  39.5915225   3.3020210  79.6882963  81.0405305  25.6904966   3.3127701
  80.4785398  26.3636190   3.6965668  80.6598333  24.8635084   3.6083901
 104.5751476  68.3273315  66.9639349 104.1003132  68.9136362  67.5530052
 103.9462280  67.6365566  66.7553139  99.0140533  56.9438696  84.8524475
  98.1968689  56.4474964  84.8071575  99.4434452  56.7753553  84.0137196
  95.2012348  88.6997700  78.4402657  95.8479977  89.3543911  78.7036991
  95.1345348  88.7976837  77.4904299  14.8691990  74.6985340  78.8611221
  14.1779758  75.1211929  78.3514071  14.8656322  73.7893391  78.5618210
  67.4179366  14.1409015  73.4166861  66.6793730  13.5399246  73.3188105
  67.0880892  14.9800777  73.0954075  36.3988020 106.6162522  10.7794487
  35.6372168 106.6972144  10.2052891  36.0390475 106.6764481  11.6644203
 103.3560181  94.6775627  68.3479404 103.6662483  95.3824902  68.9163303
 103.6275768  93.8744640  68.7923861 109.9131107  89.1884041  50.4287672
 109.8767376  88.8606644  49.5301628 109.1127110  89.7038460  50.5283070
  83.7379646  84.5880413  48.1107187  82.9837990  84.9807453  47.6711226
  83.3584023  84.0691853  48.8199091   7.3425914 104.6203327  88.5766411
   6.7350055 104.5255089  89.3101883   7.5397922 103.7220287  88.3113194
  84.8044205 106.7621231  91.8843460  85.0038815 106.4125347  92.7528095
  85.5232525 106.4552784  91.3317585  18.5595180  70.7173872  39.8678088
  18.8842918  70.0859690  39.2258883  19.3189384  71.2628794  40.0726175
  32.0665934   6.3977050  65.8092976  31.5767767   6.6005515  65.0123262
  32.8974440   6.8612766  65.7043123 103.7146664  98.2774925  67.0135117
 104.6419430  98.3658409  66.7931032 103.5890961  98.8631248  67.7601624
  92.2417978  20.8278019   4.0870583  92.1558145  19.9571020   3.6988270
  91.5540746  20.8625729   4.7519314  35.0645041  29.1864753  50.3661823
  35.6928301  29.1087866  49.6482658  35.5917549  29.0822768  51.1582565
  63.4844685  33.6807752  80.1694298  63.7143421  32.9503226  79.5951176
  63.0576706  33.2694101  80.9209919  28.9002418  96.8526167  53.6642599
  29.0262031  96.2660468  52.9184055  29.7116946  96.7789603  54.1666031
  67.9454184  12.0570946  52.9514122  67.3779964  11.2886333  53.0125332
  68.2534838  12.0558798  52.0451403  42.7675581  16.0740137  48.7480927
  42.7845907  15.4063988  49.4338274  42.5785208  16.8894601  49.2123556
  26.6119956  91.5621305  52.1018171  27.2232722  91.0171605  51.6062546
  25.7580327  91.1534739  51.9604778  20.3182887 101.8626521  58.9069080
  20.6765317 102.4127561  59.6035290  21.0711240 101.3706494  58.5791779
  53.4030914  22.1020889  44.4746017  52.8592873  22.7703071  44.8917294
  54.0389395  21.8568683  45.1467609  54.0575743  39.7746015  75.6399775
  53.9500713  38.8271689  75.5560303  54.9903727  39.8949862  75.8178043
  65.5327892   0.7660530   6.1876601  66.0265875   0.9398777   6.9890201
  65.0991154  -0.0715891   6.3504958  30.6969356  82.2165895  51.4848089
  31.3167524  81.4893818  51.5416288  30.0139474  81.9033886  50.8917999
 101.3876984  77.5765229  55.4647112 100.9399626  78.0701781  54.7776365
 102.2914169  77.8906108  55.4351425  22.5489377  99.5709479  56.7266893
  22.5233888  98.7347603  57.1918440  23.4543323  99.6504206  56.4264059
  75.3869390   9.8252839  70.2303457  75.0003767   9.5830512  71.0718489
  76.3310003   9.8124737  70.3878927  39.5901822  81.4852262  42.2066784
  39.0919780  81.9550729  42.8754568  39.0170669  81.4808250  41.4400291
  82.0661259  16.8282866  33.0623317  81.2509918  17.3193085  33.1657386
  82.1437740  16.6890538  32.1185017 110.1435375  64.4810247  65.9062290
 110.5886650  65.1251125  65.3555489 109.7708797  63.8532925  65.2871084
  47.3212481  11.3900828  44.0296555  46.7416143  10.7797647  44.4854689
  47.9738188  10.8310163  43.6079597  78.1907126  60.2815270  89.3452257
  77.6467416  60.3110331  88.5581696  77.8298566  59.5588737  89.8588273
  59.6771193  12.3890209  65.0204182  60.1151276  12.8715003  65.7215548
  59.0510845  13.0138791  64.6545362  84.8629379  26.6709733  37.8340101
  84.8190212  27.3541546  37.1650052  85.7570744  26.7234755  38.1716228
  89.6099052  83.4586454  52.8399849  90.5051968  83.2906151  53.1340075
  89.1845558  83.8716746  53.5914612  55.8924294  36.0327148  53.6732531
  55.4777479  36.3788867  54.4634676  55.6664276  36.6624069  52.9886818
  69.4941425  35.5349278  15.4171884  68.6811161  35.6175494  15.9155798
  70.1032114  36.1319065  15.8517957  79.7081470   8.8579249  73.0175304
  79.9774599   8.5606557  73.8866329  80.0706577   8.2054865  72.4182463
  45.8224916   7.5074524  64.5392656  45.6064415   7.5293434  65.4715061
  45.9368515   8.4267282  64.2982578  59.5325708  16.3910127  92.0948315
  60.4801130  16.4431739  92.2200394  59.4017124  15.5896223  91.5879917
  92.8384781  17.6780331  82.1381187  92.3472214  18.0133164  82.8881073
  92.5760269  16.7599702  82.0709419  61.0277319  18.5847890  57.1219969
  61.0362196  17.7783537  57.6375771  60.3588438  19.1282856  57.5384474
   0.0966810 106.6869082  47.8911018  -0.1410008 106.4071904  47.0070791
   0.6751632 105.9958223  48.2135773  64.6548843   0.5141177  37.3372626
  64.2947245   0.9251961  36.5514326  65.5261374   0.8992584  37.4311686
   0.1537370  77.9100800  44.4024992   0.3566050  78.5201240  43.6933279
  -0.3836442  77.2337080  43.9902210  44.3606570  87.4876554  -0.0901115
  44.8927405  86.9410021  -0.6682861  44.6060469  87.2118385   0.7930290
  10.9070634 105.4043247  19.6621418  10.1678418 104.8231957  19.4830489
  11.5674256 105.1584752  19.0142941  53.8745213   6.6976559  49.9345779
  53.4166193   7.4022651  49.4762325  53.2219791   6.0023147  50.0177479
 107.7498815 103.0881772  68.5502672 107.6903675 103.4034706  69.4520855
 108.6803958 103.1520838  68.3351088  67.2510767   4.9980417  61.9944143
  67.4680805   4.4086078  62.7167082  68.0991459   5.2951336  61.6646528
  10.0041722 104.4019904  46.4743090  10.4667663 105.1959329  46.2061787
   9.2521476 104.7200904  46.9738150  43.0752373  15.5734801  68.8599920
  43.7343121  16.1097169  69.3007898  42.3693085  16.1852622  68.6511469
  72.1335316  19.5487618  48.3715582  72.2791624  19.9912119  47.5353384
  71.3493395  19.0187848  48.2287359  50.6989431   6.6842586  18.8784027
  50.9917212   7.4889416  19.3061852  51.1031055   6.7133188  18.0112004
  70.1513195  15.4086530  69.3501282  70.9500217  15.9109819  69.5112801
  69.5893049  16.0046887  68.8550377  53.7508678  25.7740617  69.5992661
  54.2358017  25.7224035  70.4229212  54.4251633  25.9012914  68.9319038
  40.2663708  18.2810605  49.4978714  40.2875948  18.8364279  50.2771950
  39.4526148  17.7838123  49.5802069  32.5008344  96.4650739  51.7424440
  32.2042321  97.2627426  52.1806049  31.7543315  96.1934150  51.2084341
  -0.1521755  95.9382880  47.2824764   0.3200792  95.1128662  47.1734524
   0.3703593  96.5787554  46.7997885  52.9968785  78.1959630  74.1693115
  52.8360700  79.0778661  74.5049000  53.8659429  77.9686666  74.4999123
  22.2710847  66.6558791  13.0402446  23.1912421  66.6544676  12.7765524
  21.9228362  65.8322192  12.6988649  66.3661051  17.1135569  80.5596161
  66.0157299  17.3567343  81.4165497  67.0883226  16.5170538  80.7566452
  67.3194313  21.7861295  30.8799410  67.5589848  22.7074838  30.7801819
  66.3689184  21.7966080  30.9923840  25.0339603  66.5315056  12.0878065
  24.9160813  66.3255168  11.1604953  25.7060718  67.2129679  12.0982242
  48.5888719  98.3938909  64.4994164  49.2803144  97.7379323  64.4108105
  47.8050279  97.8881580  64.7140360  15.7463836  92.4795068  50.4481125
  15.4510307  93.3842993  50.5498457  14.9788665  91.9509912  50.6667948
  63.0665731 105.4203050  60.2362728  63.2559442 106.2501305  60.6741810
  63.7650823 105.3264192  59.5885849   1.6955712  36.5767093   2.9765331
   2.0033266  37.4826117   2.9472363   2.4603703  36.0728080   3.2547295
 101.2788794 102.1025214  65.8601427 101.1456201 102.5470916  65.0229836
 101.3775227 101.1791647  65.6279516  61.9198275  17.0051384   8.9855951
  61.4832783  16.8241775   9.8180062  62.1946335  17.9195571   9.0530843
  34.0419482 101.8871213  28.8813877  33.5118293 101.9508935  29.6758318
  34.3134593 102.7872518  28.7017250  15.8501100  75.8957148  63.0519629
  15.5080127  76.3940192  62.3097372  15.2896833  75.1211668  63.0991459
   1.2369683  51.7696410  24.0835964   0.5606415  51.6373703  24.7479164
   1.7068961  52.5518458  24.3726551  48.5944032  91.3991404  88.7764263
  48.2487821  90.5785037  88.4252453  48.4674691  92.0337701  88.0711842
  85.8838272  14.2768300  55.4342222  86.0898972  13.7421811  56.2009811
  85.3670979  15.0040519  55.7811832  24.0004205  89.3928624  45.7264757
  23.4825038  89.1043628  46.4779806  24.5020770  90.1394904  46.0537624
   8.8763284 103.0720482  40.0120258   8.2630300 102.8696886  40.7185316
   8.3960199 103.6733148  39.4428015  97.1192265  43.2158041  53.3340120
  97.2896099  43.7680721  52.5709915  96.3033676  42.7616024  53.1235504
  70.0706768  10.5725420  42.0493984  70.3246546  10.3095531  42.9340267
  70.4158545  11.4603400  41.9550705  31.8387532   2.9811618  49.1990566
  31.7386031   2.6942495  48.2913780  32.7604270   3.2291439  49.2715549
  88.7955461  78.6037136  67.3393202  88.9707003  78.5749651  68.2799196
  89.5536766  78.1758452  66.9413280  62.9878569  18.0571854  31.3907075
  63.7299824  18.6100793  31.6352224  62.9738188  18.0844688  30.4340005
  48.1419706  21.1831594  60.8012629  48.0968189  22.0903778  60.4993582
  47.2463465  20.8568501  60.7140255  77.6522160   4.5430756  73.5355902
  77.8145933   5.2404666  72.9003620  78.4198141   3.9750856  73.4691381
  43.5821724   9.0867543  48.5084867  43.9386320   9.4601017  47.7023983
  42.6398373   9.0305018  48.3501339  54.6112108  27.8636432  22.9561925
  55.4369688  27.7633762  23.4297943  54.0219402  27.2299623  23.3653903
  53.8737297   2.7346933  64.8155737  53.2674122   2.5431764  64.1000795
  53.6511803   3.6254758  65.0861502  74.2423010  11.4049816  56.2149525
  74.4598436  10.9186018  57.0101500  73.3240366  11.6504264  56.3279819
 107.1503995 106.2090372  67.3429871 107.0782397 105.3156847  67.0069122
 107.7500103 106.1378271  68.0857038  32.4676251  17.0750356  55.4254866
  32.8789592  16.3282919  54.9902725  31.5961123  17.1304238  55.0335312
  89.4071198  18.7702453  54.2296410  89.0425682  17.9618680  54.5899963
  88.8331699  18.9848840  53.4942913  77.5273991   7.7615851  86.1037636
  76.6139174   7.8016210  85.8205986  77.6805973   8.6008328  86.5378475
  52.0443249  12.1715760  48.8636923  51.4619827  11.6382360  48.3227110
  52.7241373  12.4713314  48.2601786 108.1703875  97.5470037  73.4430981
 107.5125287  98.1376035  73.0761576 109.0080950  97.9482407  73.2118273
  53.9585495  16.6797519  20.2280569  53.1318665  16.6232741  19.7488523
  53.7095737  16.9868577  21.0997963  19.0552138  97.7498317  67.1673059
  19.1118621  98.5170329  66.5977240  19.8285770  97.8102482  67.7281046
  87.0738792  26.4529514  27.6065421  87.8619003  26.9571018  27.4038410
  86.6303825  26.3527560  26.7642212  58.2074642  39.4527459  37.2432160
  58.2151604  39.7967434  38.1364346  57.5836229  38.7273049  37.2713065
  47.2074270  18.1217408  67.6439810  47.7910280  18.4072506  68.3469200
  46.9943094  18.9247596  67.1686125  65.8081579   5.2940422  31.2345695
  66.7092419   5.0192350  31.0649681  65.6824732   5.1384687  32.1706438
  76.5771437  18.6919820  42.9685354  76.8887663  17.8079259  43.1623554
  76.9864464  19.2420292  43.6364794  48.4861851  24.1324210  39.4789243
  48.6681032  24.8018980  38.8194275  47.5534201  24.2313623  39.6696925
  78.2306099  53.0028057  33.7458849  77.8096247  52.1498728  33.8531399
  78.9100552  53.0209970  34.4198728  55.0281334  20.9952807  22.4635601
  55.5253124  20.2578068  22.8173590  54.5999575  21.3835335  23.2265520
  79.6891499  27.5219464  64.8930740  78.7362719  27.4899030  64.8080444
  79.8754120  27.0245576  65.6894016  69.4221592  25.6892467  40.4246807
  68.6455727  25.7672501  39.8705482  69.5521021  24.7460747  40.5235291
  48.1957578  87.8119350  48.1069231  48.4699010  87.0873917  47.5446796
  48.6498403  88.5759581  47.7515125  37.2679806  19.4319975  50.3991699
  37.3133802  20.0722194  51.1092997  36.3313293  19.3218255  50.2355337
  71.5573931  28.5966420  24.0557289  71.1790276  28.8594365  24.8947811
  70.8009863  28.4401798  23.4903979  24.4359826  80.7519937  77.7767181
  23.5760450  80.9312964  77.3964691  24.2478179  80.2425743  78.5649586
  34.9627423  17.8506303  44.2530298  34.2804861  18.5211957  44.2861986
  34.6701050  17.1804476  44.8706436  87.7065277  17.9850519  58.4358692
  88.0096817  18.1049788  59.3358421  87.0648193  17.2770035  58.4916401
  92.7875423  22.7993631  65.8573675  93.0366611  22.5953102  64.9559593
  92.1805763  23.5351753  65.7773924  52.8719997  15.6745064  73.1796741
  52.5583553  16.1346889  72.4011564  52.4135208  16.0947669  73.9072800
   1.1423923  22.7497268  64.9948502   1.6681148  22.7283669  64.1952324
   0.9516384  21.8303227  65.1807117  93.6021709   2.3912716  47.0982456
  93.4605312   2.0988199  46.1978865  92.9239464   1.9443795  47.6047325
  33.4991693 103.7704158  80.3670979  32.5711106 103.7143848  80.5946732
  33.6027908 103.1647501  79.6331596  71.4706039  29.8314738  54.9892998
  70.6488228  29.7077179  54.5143366  72.0746946  29.2055559  54.5898867
  64.4858121  93.5927284  82.7223969  63.9592504  94.3144668  83.0659962
  63.8857412  92.8472734  82.7014065 102.7336216  14.4526196  92.4766350
 101.7905521  14.5974398  92.4000168 102.8357887  13.5028148  92.4161053
  69.5561218  50.6530714  28.3677197  70.0639248  50.5197763  27.5673461
  69.2104483  51.5420008  28.2868028  88.4380531  11.5657222  43.2094097
  88.8031483  11.1981618  44.0142918  89.1290665  12.1352386  42.8712034
  62.0268965  30.7713771  67.6596546  62.7203655  30.7233119  67.0016098
  61.3151026  31.2399316  67.2237253  55.8573627   8.1089592  78.1362915
  55.9749269   8.7197191  78.8638830  54.9435806   8.2214540  77.8744125
 111.5855217  20.3829741  35.4007602 112.0462990  20.5474806  34.5780516
 112.2750187  20.1318741  36.0153913  59.4366503  19.8627102  59.0024328
  58.7242126  19.7058547  59.6221590  59.4821739  20.8157706  58.9260483
  96.2329197  18.0178189  81.3489914  97.0519829  17.8864646  81.8266010
  95.6075573  17.4363601  81.7815018  47.6229763  17.3610806  55.3472757
  48.0728865  17.9471350  54.7387123  48.2932377  16.7316663  55.6133938
  85.1175213   9.6795666  24.1602683  85.8019733   9.0756202  24.4483829
  84.6107864   9.1796118  23.5203528  36.8377399 101.8465773  25.9881568
  37.3431920 101.8332115  26.8009138  37.2690677 101.2019390  25.4272366
 113.0550289   9.5642501  51.0633707 112.3503876  10.2111399  51.0986710
 113.5950279   9.8384988  50.3221369 101.8392944  16.0317302  68.5458994
 102.4126816  16.7634809  68.3178711 101.2389755  15.9576464  67.8040314
  56.8036699  22.7589560  64.4678736  56.2296963  22.3305082  63.8328791
  56.2244368  23.3409500  64.9598074  54.0821408  79.6638299  79.4719505
  54.1615056  78.7446356  79.7269297  54.3788385  80.1519299  80.2400398
   4.5450499  35.5255349   1.3865769   4.1140416  36.3202937   1.0722172
   5.3562071  35.8360822   1.7888558  85.7379246   2.1467677  49.5569754
  86.4242744   2.7621973  49.2992878  85.5065823   2.4057344  50.4489660
  86.1194229   8.5483450  20.4630661  85.4650307   8.8641304  19.8399460
  86.2894917   7.6453871  20.1947856  31.2229633 103.2617355  12.9987824
  31.8298434 102.5843829  12.7002537  30.3700351 102.9828078  12.6657021
  45.3921079  86.4253975  21.8695140  45.4552697  87.3799468  21.9023275
  45.9054708  86.1776853  21.1005330  32.9303502 102.5439725  73.3322287
  32.5051927 102.8379471  72.5265932  33.8359212 102.8423793  73.2477903
  26.3759231  91.3410783  48.6506510  25.5247687  91.4181233  49.0817356
  26.4349794  92.1192241  48.0963612  55.3771210  20.2297950  38.8713527
  55.0787115  19.7340405  38.1088471  54.5712662  20.5034208  39.3094897
   9.7784757 103.3264354  54.0594578   9.3718194 103.5476268  54.8972750
  10.6535052 103.7112764  54.1089344 108.3739588 103.3900339  53.1901550
 109.2657564 103.0428339  53.1706190 108.3781097 104.0204883  53.9103937
  82.5988103  66.5076525   6.9113648  82.8642751  66.3091559   7.8093445
  83.4157372  66.4987965   6.4125931  54.0674066  92.9369498  41.1213493
  53.7186288  92.3511494  40.4494715  54.6738481  93.5080410  40.6498384
  62.1192217  31.3683057  75.2197170  62.7983952  31.5419626  74.5679522
  61.3265085  31.7558146  74.8486757  45.2036809  74.8574591  62.8400230
  44.7717141  74.2395616  63.4298038  45.9662866  74.3815041  62.5112009
  38.5905742 100.1892704  88.2427883  38.9857482 100.2040572  89.1144848
  38.8068818 101.0427386  87.8672504  65.5859280   3.4349003  23.9473176
  65.4978991   3.1678790  23.0323410  66.4272213   3.8899845  23.9841342
  67.9140806  16.8928552  31.3207197  68.4117126  17.3569465  31.9939327
  67.4972296  16.1686182  31.7875695  90.8637810  28.5134506  57.4332428
  91.1106968  29.0456891  56.6769409  91.5484905  27.8470588  57.4909496
 103.6241055  12.3390186  32.3703909 102.6743126  12.2408521  32.4374032
 103.9145565  11.5508914  31.9113398  84.2090607  26.2638521  73.0830717
  84.1613293  26.2407875  74.0388012  83.9167976  27.1450019  72.8498554
  76.9561148  27.5661159  34.9655914  76.9314671  27.7919292  34.0357351
  76.1550331  27.0628190  35.1111579  99.9855137  21.8034816  31.2453580
  99.9951172  22.6018739  31.7732882 100.9097767  21.6009188  31.1006308
  81.7148876  28.9752126  46.2105370  81.8599892  28.2506347  45.6021261
  81.0170937  28.6665726  46.7885113  53.2655382  37.8922653  19.6604836
  54.0231752  37.4005604  19.9774098  52.6387501  37.8585315  20.3831387
  63.2147646  28.9105725  42.5567055  63.9959192  28.3932185  42.7525949
  63.5525465  29.7749758  42.3223019  55.2278137  13.2726097  26.3965893
  55.5089664  13.9380455  27.0245886  55.5878210  12.4539542  26.7378092
  12.0866489 104.8413623  39.4707632  13.0242347 104.9288819  39.2989779
  11.9070577 103.9089347  39.3501067  79.0440035  11.3513029  25.8298159
  78.8597298  10.4131842  25.8768082  79.8045492  11.4173687  25.2523780
  46.3605642  94.1839791  30.3502846  45.8258866  94.7452236  29.7887230
  47.1916246  94.0995753  29.8829055  78.1875467  31.0004497  69.3530464
  77.4886131  30.3508639  69.2771101  77.9577017  31.5098476  70.1301670
  53.2731438  27.8619742  46.9972897  54.0881300  28.2092500  46.6347599
  53.5537529  27.1780896  47.6053953  29.5653200  12.4460030  31.0578108
  29.9316049  13.2318079  31.4634943  29.1905999  11.9523275  31.7872643
  28.3352803  96.4356375  45.5450916  28.5501289  96.2505663  44.6308613
  27.8812503  97.2778899  45.5186605  53.5452843  11.9082558  56.3414907
  52.9600906  11.1673725  56.4991999  52.9601336  12.6329029  56.1207724
  42.2536420 100.8633274  56.1271524  42.3009729 101.8009371  55.9403944
  41.3847684 100.6019378  55.8222485  27.1874049  78.9979250   6.3549626
  27.6223853  79.7825153   6.6887962  27.8659632  78.3229764   6.3703644
   6.8142795  92.9709709  81.9723225   7.5400352  92.9337991  82.5953197
   6.5670156  92.0560980  81.8377781  54.4026708  74.2256880  77.8691626
  54.1643666  73.5578251  77.2261953  54.9490880  73.7626434  78.5041809
  79.4724464  12.7036130  63.7390947  80.0615311  13.3385134  64.1466713
  78.7664080  12.5892401  64.3752241  75.0904416 101.3168103  53.5266209
  74.3020009 101.0576004  53.0497551  74.7643994 101.6707981  54.3540382
  81.6982937  37.5047588  31.6240716  81.5339470  36.6536379  32.0300460
  81.6917133  38.1236696  32.3542356  64.9571848  21.1879182  71.9733191
  64.1162062  21.6092777  72.1506357  65.0007582  20.4666209  72.6010656
  72.9731321  23.7131524  19.8259211  73.2457590  24.5706391  20.1524544
  72.7446604  23.8674855  18.9092898   7.4189948  89.1813374  40.8747339
   6.8081950  89.4407213  40.1848936   7.2812032  88.2394183  40.9749079
  47.5607824  88.2073522  83.5639000  47.4394368  88.3353949  82.6230907
  46.6905164  87.9757655  83.8883114  47.0909071  23.0732727  48.1974030
  47.2784948  24.0026975  48.3286095  47.3758745  22.6544380  49.0095615
  26.6092443 101.4978701  91.2728214  27.0138597 100.7640541  91.7354488
  27.3478746 102.0114005  90.9457970  90.9774113  32.5315118  59.0874815
  90.8512020  31.6606188  59.4641066  91.8250942  32.4808955  58.6457777
  20.4906749  82.1803642  53.2537079  19.9092387  82.9375387  53.1840706
  20.1512574  81.5578032  52.6107121  88.3245373  17.0592499  29.0358400
  88.3946991  17.7536178  28.3807349  89.2144299  16.9577622  29.3735290
  48.1511307   7.5220370  25.6097817  48.7074280   7.7791047  24.8744726
  48.1140566   6.5668732  25.5595922  73.4035015  28.3647895  53.3708954
  73.7916565  27.5319648  53.6391592  73.4292984  28.3439493  52.4142694
  62.8235340  21.0888815  66.0934019  62.2893333  20.3666568  65.7628679
  62.8491926  21.7174983  65.3720045  55.2559996   6.0614729  55.9310436
  55.2844143   6.5627056  56.7460203  54.3300629   5.8499950  55.8120823
 112.0338727  61.6647596  11.2108719 112.9617978  61.7935021  11.4073670
 111.8343163  60.7947422  11.5565216  79.0408373  45.5953360   3.7554368
  78.9275599  44.7164965   3.3934423  79.9189138  45.5861092   4.1363981
  96.6402340   0.3788912  38.2739139  96.4710712   0.9051125  37.4924374
  96.7768764   1.0212749  38.9702654  89.5333767  22.4358916  33.0467319
  88.9477062  22.1266747  33.7378240  89.5907307  21.7017937  32.4351430
  70.6683683 104.1786591  50.7473421  71.5021943 104.5944410  50.5280590
  70.8327054 103.7371359  51.5805817  25.3660487 102.9913205  54.7244787
  26.2533759 103.2769788  54.5070314  24.9255513 102.9129226  53.8782787
  44.2089033  12.4659467  45.9174252  44.3911600  12.4389815  46.8567276
  43.7249851  13.2820284  45.7906723  77.0206642  21.1853456  53.5867739
  76.5015697  20.9949541  52.8054190  76.7075872  20.5601811  54.2405176
  47.3276329   5.2142954  29.3737268  48.0078697   5.8818859  29.2852426
  47.7863169   4.3853694  29.2368937  63.4472799  29.3728137  60.7281160
  63.5723829  30.0379300  61.4050245  64.0839863  29.5985317  60.0499678
  35.1093721  93.4097362  26.5649414  34.9439191  94.2272390  26.0953164
  35.1835632  92.7488340  25.8765125  88.3440018  31.0974789  73.8023758
  88.9576721  31.5013027  74.4160318  88.0832481  31.8109798  73.2200098
  70.4626465  11.9454932  53.7910748  69.5061874  11.9825363  53.7977028
  70.6664705  11.0845137  53.4258318  50.0510216  22.2138762  75.0486135
  50.4638004  22.2134852  74.1849899  49.1389847  21.9784999  74.8782730
  83.2856178   4.7980630  34.6540689  82.5465679   4.5309669  35.2006054
  83.8866043   5.2322769  35.2594686  79.8476505  33.5192108  67.2306824
  79.3276405  32.9483867  66.6650105  80.0229454  32.9900455  68.0088139
  18.9199831  66.2825866  13.2000458  19.3324664  66.0273428  12.3748505
  19.6374228  66.2918849  13.8336193  74.6620321   4.2589095  61.3215637
  74.9436808   4.7387248  60.5426645  75.4353952   3.7628180  61.5899467
  10.4539206  68.5738189   5.0886547  11.3097861  68.3698924   5.4656517
   9.8440554  68.4944839   5.8221447  66.9711781  28.4547472  57.4913692
  66.3967991  28.3845067  56.7288828  67.1427584  27.5482154  57.7463007
  54.2433691  15.0958586  58.3086252  54.5159149  14.8507321  59.1928577
  54.8477983  14.6271563  57.7331114  81.2898636  13.7108231  60.7631111
  80.9295368  12.9565394  61.2294292  81.9933796  14.0285897  61.3290834
  51.9184160  16.5935493  66.1555195  51.6544533  16.9988751  65.3295231
  51.9826984  17.3238814  66.7709160  31.3455367  29.0701723  25.8276057
  30.4837227  28.6686540  25.9384727  31.6881084  29.1516352  26.7176843
  44.5971441  12.0322132  59.1798496  44.8020601  12.9579341  59.0483904
  45.4445314  11.5898728  59.1298008  49.7932958 104.3916780  48.2814598
  49.0633630 104.9299299  48.5875797  49.4280385 103.5095949  48.2125568
  48.3516740 105.5895815  53.8186884  48.7971639 104.7526613  53.9503670
  47.4352979 105.3531606  53.6752224 103.1862880  61.7908789   3.0479443
 102.6002122  61.9450797   2.3070252 103.1403590  60.8464963   3.1971562
  59.2834854  31.4297128  51.9043779  59.5891953  30.7046533  51.3593435
  59.8135900  31.3718796  52.6992846  98.9220333   1.5281281  20.0227141
  98.6230850   1.2578690  19.1544867  99.6456432   0.9342241  20.2224827
   0.4659130  30.6964254  67.6147985  -0.1272248  30.0306392  67.2667313
   1.3092853  30.5035424  67.2052288  62.2323847  14.5042050  39.6674037
  62.8259182  13.7711775  39.8305583  62.8094196  15.2343309  39.4433951
  53.5391092  24.3448329  42.4210501  53.3854103  23.7295461  41.7040920
  53.0027962  24.0125823  43.1409216  26.5647458  82.6921535  70.6199312
  26.1020183  81.9705415  71.0458326  27.3002862  82.2740102  70.1723051
  47.3652220  13.4575593  58.3537340  47.8065491  13.1368637  57.5672150
  48.0329847  13.9679515  58.8118029  65.3921366  18.9970160   9.9361366
  64.8952961  18.8122284  10.7331538  65.6589556  19.9117839  10.0269032
  45.3554916  20.9261227  49.9516869  45.1121855  21.7453527  49.5205307
  46.1960745  21.1153603  50.3686333  74.3461227   6.8395036  83.9693832
  74.5463514   7.6133895  84.4959164  73.5934401   6.4408368  84.4061470
 106.6449547   4.7853905  48.5834599 106.0754776   4.6559158  49.3418550
 106.0857677   5.2118200  47.9340744  21.3024615  89.1770006  67.5348330
  21.4794540  90.0278867  67.9359531  22.1643161  88.7700749  67.4461985
  13.3598421  85.7253879  85.6885225  13.9926432  85.8937042  84.9903381
  12.5263308  86.0381072  85.3368199  65.2856778  93.9675332  35.3796220
  64.5956659  94.6164430  35.5175877  65.2015733  93.3672858  36.1204743
  75.9058666   8.6838675  74.6577978  76.0268497   7.7540523  74.4653463
  76.4305496   8.8360202  75.4437923  37.5759410 102.1703834  28.8356328
  36.7520713 102.6576073  28.8266110  37.4312925 101.4669622  29.4684887
  80.2592373   2.9555401  75.0093699  79.9721241   2.1206942  75.3792715
  81.1326694   3.0923507  75.3763056  68.1701994   9.6464890  40.0294065
  68.7248659  10.1635075  40.6135893  67.3907375   9.4514632  40.5496359
  59.2445087  17.2518575  60.8372831  58.8894367  17.8595018  61.4860678
  59.2288399  16.3998723  61.2732983 111.7154381  94.4252706  61.0109663
 111.3344309  93.5514975  60.9238577 112.6546953  94.2684126  61.1080265
   3.2513954  27.2811770  52.6293421   3.7560131  26.8085313  51.9673777
   3.1961013  28.1761861  52.2944832  97.1900940  33.3681965  28.4971380
  96.3542843  33.6413598  28.1189442  96.9566822  32.6852870  29.1259336
  30.3123807 100.6457872  69.9508333  30.6315564 100.1024324  70.6713343
  31.0266685 100.6423784  69.3136406  10.5672218  54.0609741  58.0496216
  10.2294494  53.1822824  57.8763008  11.5164234  53.9743757  57.9615688
  36.7480468  95.1622201  51.8140888  37.0534991  94.6669543  51.0540628
  36.7086744  96.0687125  51.5092039  83.8259792  13.4304261  53.8273096
  83.5090923  12.9016030  54.5595407  84.5797920  13.9023566  54.1812658
  90.2980328  11.0358655  56.7827463  89.9617195  10.3282547  57.3326635
  90.3948021  11.7778099  57.3797321  29.7123908 101.1071975  37.5742197
  29.3679237 101.9797862  37.7643847  29.0407085 100.6982399  37.0284796
  39.7065591  98.5767645  37.7534652  38.8437366  98.2048715  37.9363775
  39.8033094  99.2829842  38.3923125  79.4617701  15.5721641  71.3151646
  79.5685530  16.1363983  72.0809793  78.6223555  15.8360887  70.9383917
  90.6550694  19.2384934  59.3815947  89.8343563  19.5499372  59.7632599
  90.4565907  19.1172206  58.4530830  69.7775269  12.9609263  88.0531597
  69.0596294  12.3360682  88.1551838  70.5499077  12.4158955  87.9028034
  42.3644494 103.6109290  81.7755508  42.3542833 104.2124379  81.0310268
  41.5771674 103.8321978  82.2729969  56.3819456  15.5255866  86.8859959
  57.1157837  14.9327052  86.7241287  56.4946795  16.2269711  86.2444496
  34.8641156  75.9102798  71.1561346  35.2046680  76.7738796  70.9227896
  35.1545238  75.7739688  72.0579767  27.8337382  96.1766577  40.4361057
  27.3877191  95.8708585  39.6463037  27.3240136  96.9352973  40.7205009
  81.9803047   3.4024030  64.8893547  82.8991795   3.6432147  65.0073147
  81.5142345   4.2382464  64.8700190  81.6008186  13.4574425  48.5988474
  82.4686241  13.2945287  48.2292509  81.7263985  14.2036259  49.1850853
  27.9194831 105.0189067  45.2631187  28.0269765 104.1210530  44.9492121
  27.1141051 105.3239064  44.8452902  49.8930740  42.8958511  70.8925295
  50.2854729  42.6452255  71.7288542  49.7255659  43.8343716  70.9782410
 105.1176593  90.7166732  54.7024775 105.2771900  91.5148891  55.2060986
 105.7731650  90.0967312  55.0221920  94.7961617  31.5097785  55.9127808
  95.2233028  30.6817365  56.1321592  94.1717911  31.2820625  55.2239084
  97.0743370  11.5432644  69.0445328  96.4321804  12.2528827  69.0271616
  97.8761101  11.9536781  69.3684912  85.8014679  28.9750552  70.3680420
  85.7571125  29.6685004  71.0263729  86.3748455  28.3135629  70.7552004
  58.2861423   8.1775719  39.6420574  58.9388084   8.5064912  40.2601767
  58.7044811   8.2608044  38.7851453  89.2868328  10.4824996  64.1107941
  89.1213894  10.2475953  65.0238562  88.4552479  10.8416414  63.8014221
  74.0180683  29.7502375  57.2763681  73.6702585  29.4817615  56.4259672
  74.4796085  30.5697274  57.0984745 102.9828453  27.5254154  32.0229340
 102.9636955  26.8505263  31.3444138 102.0708370  27.6120710  32.3003626
  87.5062084  39.6837878  67.9447174  86.8105316  39.0273428  67.9081011
  87.8118038  39.7595906  67.0407820  50.0383233  93.3701778  66.9806147
  49.1769933  93.7859381  66.9420242  49.9931955  92.7962530  67.7453423
  57.6665688  13.3635497  34.0958214  57.7431011  14.0271640  34.7813821
  57.7993965  12.5322127  34.5513058  69.8703552  86.2290270   7.0374310
  69.2252255  85.6719954   6.6018212  69.6349717  86.1883552   7.9643452
  31.7099570 102.0472450  35.8658004  31.2275123 101.3972962  36.3767219
  31.4417981 102.8888876  36.2345266  25.4838990 102.3537174  18.9067221
  25.9132814 103.1905094  18.7288463  26.1675309 101.8130565  19.3024015
  34.2318820 100.7895583  43.3745337  34.0458202 100.3612972  44.2101192
  34.5496034 100.0850171  42.8098106  60.9166908   0.9144154  77.1288013
  60.5206823   1.4387271  77.8248644  61.4533281   0.2699295  77.5901985
  60.3918457  15.9765506  79.5225716  59.6539688  15.3892267  79.6863270
  61.0807228  15.4062808  79.1812944  21.0382462  19.9114037  14.2148471
  20.1033545  20.0652528  14.3510067  21.0980964  19.5768905  13.3200002
  55.1621961  89.2246104  85.6437111  55.7059240  88.9268768  86.3730621
  54.4541692  88.5823095  85.5950069  69.6086264   5.1716620  60.2465296
  70.2357483   4.4733444  60.4344082  69.1371727   4.8678818  59.4708490
  80.9895039   6.2945205  84.6104813  81.4986134   5.6793100  84.0826893
  80.3836536   6.6986889  83.9893341 104.9823666  41.4641762  63.7304449
 105.4987431  41.0256386  63.0542278 104.0988922  41.1116886  63.6234331
  58.1478643  92.8221202  44.9207306  57.7079820  92.1239067  44.4357204
  58.6235284  93.3151615  44.2522383  91.8028641  32.8736663  42.2809792
  92.0401955  31.9467163  42.2551441  90.8573437  32.8747535  42.4300671
  74.9460316  36.5290022  78.7575531  75.4167795  35.7007241  78.6649036
  74.0787029  36.3536811  78.3925390  78.5840368   0.8557896  43.1505394
  78.0409336   1.4603530  42.6447964  79.4741821   1.0126515  42.8354740
  63.5012007  17.7599072  53.8528919  63.7942839  18.6605978  53.9910460
  63.8584137  17.2750127  54.5968723  50.8158064  13.8338327  11.4378405
  51.1282253  14.7378397  11.4751804  49.9625301  13.8928664  11.0081041
  72.7282667  24.9140620  33.6619043  71.9925261  24.3143845  33.5381937
  73.1432295  24.9648905  32.8008270  71.9170523  18.8273323  42.0147943
  71.1346960  18.7018454  41.4777613  72.5536394  19.2256653  41.4212322
  68.0753565  49.1383743  33.6617041  67.9221010  49.6305752  32.8551817
  67.3560143  49.3944550  34.2389345  74.4578314  19.8390400  66.7005968
  74.6583128  20.0016737  67.6223278  73.6712933  19.2938411  66.7191410
 106.3704300   9.8491782  36.0028100 106.6430187   9.2824602  35.2811766
 106.6270161  10.7289779  35.7264996  21.7417335  88.9035667  34.1504908
  20.8353614  88.7142861  34.3931770  21.8888854  88.3909953  33.3556008
  11.8569756   1.2403747  66.4370060  11.0338140   1.4428884  65.9924507
  12.0013165   1.9828220  67.0236635  42.0499705  93.3066083  69.9460363
  41.5481185  93.5285879  69.1617489  41.5580320  93.7027586  70.6652641
  35.6644391  64.3057919  39.7468853  34.8319005  64.7538615  39.8963809
  35.6305837  63.5399628  40.3201151  88.1309891  30.8241749  67.9929876
  87.2541904  30.5286884  67.7477455  88.1722260  30.6916308  68.9400721
   5.5843928  65.8711858   1.4811814   5.0097372  65.2038093   1.1062061
   6.4206889  65.4231997   1.6082680  62.4267197  23.8640070  89.3406296
  63.3553457  23.7341619  89.5330715  62.2493696  24.7644377  89.6126652
  95.1309586   7.5940281  51.0681915  94.5496273   7.4151909  50.3290653
  94.5672894   7.5239897  51.8386507 101.9003677  40.2867794  59.4823027
 101.0973835  40.5511999  59.9312210 101.6155148  39.6255064  58.8515806
  87.3582840  26.3209534  60.1200199  87.0070648  27.1691132  59.8488998
  87.8837490  26.0299969  59.3747282  90.5470371  38.7252569  27.8934932
  90.5181408  37.9985523  28.5158253  90.9168148  38.3440518  27.0971370
  99.7376156  30.7801628  47.5194883  99.2349339  30.1813531  46.9672441
  99.2989731  31.6248631  47.4179792  95.4983330  32.5585151  84.4617462
  94.6647835  32.8601050  84.1005325  96.1296940  33.2280993  84.1985512
  84.7108459  35.3281331  50.1170731  84.2961407  35.7064891  50.8923769
  84.0336132  35.3640747  49.4415760  51.9308423 105.9077006  40.3235579
  52.4222516 106.1457334  41.1097431  52.2776078 105.0509602  40.0745916
 103.1962204   2.0207812  66.4792204 102.5891018   2.1613240  65.7526636
 103.5327911   2.8935301  66.6823387  21.7413046  89.3994601  10.1580631
  21.7973807  90.2355654   9.6954548  21.9085219  88.7409670   9.4837868
 112.5482845  10.0345111  71.8026733 111.9718170   9.3411124  72.1237898
 113.2729435   9.5691907  71.3848495  76.1404800  28.4367871  55.5246830
  75.6979322  28.9467764  56.2031364  77.0685673  28.4886789  55.7531404
  77.3281574  13.2437634  57.8020906  78.0228519  13.7471128  58.2266760
  76.6649103  13.1295288  58.4827423  60.2574062   7.8332841  33.7774706
  60.9319448   7.2200388  34.0692925  59.4931221   7.6214999  34.3134260
  72.8786564  33.0293512  43.6144590  72.1050072  33.5109830  43.3216572
  73.3238268  32.7766967  42.8056192  81.5892410  69.2289686  51.4837503
  80.9732342  68.6425352  51.9228983  82.4335957  68.7830734  51.5506697
  81.7799512  90.4909933  55.3708696  81.7794303  91.3956833  55.6835461
  82.0055924  89.9711061  56.1422586   0.6413128  32.9446959  22.2316456
   0.4500534  32.9035783  23.1686401  -0.0083969  32.3684764  21.8290615
  59.2237186   2.1405077  70.1158571  59.4135571   2.4010992  71.0171270
  58.2692051   2.1743819  70.0527430 104.0840340  41.9261312  59.3390226
 104.5316601  41.6191816  60.1274681 103.4570026  41.2325048  59.1341925
  88.0129528   4.8154506  26.8406153  88.9646530   4.8574257  26.9341016
  87.8713322   4.2416880  26.0876417 103.7804604  40.8043480  55.2504349
 102.9842186  40.2744246  55.2128410 103.6443996  41.3884830  55.9964323
  60.6618643   9.6908534  85.6926250  59.8426533   9.2507070  85.4659176
  60.4496622  10.6236541  85.6596756  96.8338966  10.9196687  63.4818459
  96.0407352  10.6903815  62.9975462  97.2320366  11.6236591  62.9698753
   7.9266788  69.3278217  54.0134907   8.0352642  69.7724676  53.1728172
   8.0691959  68.4023142  53.8150930  77.7350140  15.9308088  60.4988432
  78.1559610  16.3298178  61.2603045  77.2371960  16.6440511  60.0992250
  82.7980709  31.9767666  51.4995193  82.2858524  31.4484763  52.1117020
  82.2928905  32.7835011  51.3985109  75.9540892  17.8483820  59.6699476
  75.5924654  18.3749044  60.3828526  75.2961349  17.1706080  59.5151854
  92.0487404   1.6854350  70.6123972  92.4680138   0.8276500  70.5442810
  91.6140652   1.6725306  71.4651108  37.1840572  98.7831843  45.6117487
  36.7365836  97.9638684  45.4002714  37.3461103  99.1937286  44.7623825
  22.3275806   2.9207304  74.4161606  22.3494865   3.1224203  75.3516150
  22.9110672   2.1680915  74.3196917  90.8406067   3.2207859  81.0244751
  91.6662884   3.1981811  81.5081787  90.1708317   3.0461997  81.6856575
  63.2062387   2.4299136  49.7587872  63.5223389   2.0839778  50.5934381
  62.6022339   1.7612979  49.4357395  29.4299701  23.9350922   7.4970066
  30.0451473  23.2158930   7.3536884  28.6202768  23.6449987   7.0769226
  29.5899584  67.2238679   2.1166050  29.7181895  66.3222404   1.8218910
  30.4739001  67.5878568   2.1655380  18.6171439  96.2722714  11.1631596
  19.5641520  96.1390288  11.2037766  18.4310820  96.3864119  10.2311814
 104.8173714  23.5523796  58.0511761 104.4060516  24.2469215  57.5367260
 104.2612839  23.4665298  58.8255310  95.2966404   7.8911722  43.2500839
  94.7664928   7.9018235  44.0469933  96.1838531   8.0890667  43.5499716
  79.8582935  25.3220010   9.2325932  80.1597118  24.4158006   9.1679549
  78.9369583  25.2868795   8.9754152 101.7293835  12.6014388  69.9778032
 102.3983288  13.2776642  70.0848675 102.2196388  11.8157315  69.7358561
 107.7920055  48.6905098  65.5966282 108.5849476  48.2327747  65.8758259
 107.8341198  49.5363808  66.0426855  96.8992233  15.0153673  53.7661219
  97.7632332  14.7430944  53.4569693  96.5232372  14.2247689  54.1531849
 112.0316505  15.7165062  90.3195763 111.1920357  16.0909927  90.5861092
 112.6460361  16.4490688  90.3655529  72.5484657  40.2209139  57.6839447
  73.1938505  40.9277058  57.6963282  72.7535629  39.7231388  56.8924952
  61.6463709   6.0559171  42.8365850  61.1259651   6.7965603  42.5253725
  61.1030722   5.6479442  43.5108376   2.1694995  49.6407080  55.6000614
   1.2145950  49.7046280  55.5830288   2.4645473  50.2921772  54.9638462
  48.8124608  75.6450987  65.6932163  49.4313001  76.0227085  65.0681686
  48.4020375  76.4021993  66.1110449  80.3841114  47.4087620  86.9481850
  80.4932213  47.3452568  85.9993553  81.1894512  47.8256893  87.2545147
  95.8892536  29.9701142  38.6460876  95.1488590  29.4729471  38.2984209
  95.4871750  30.6763434  39.1518617  11.8037035  40.5655618   1.0172856
  12.2706702  40.9929140   1.7352974  11.0898688  41.1667044   0.8044445
 100.2128983  32.1306491  72.0721674 100.0911617  31.4867306  71.3744736
 100.5283737  31.6195178  72.8174543  75.6606150  10.4036522  67.5048065
  76.5076733  10.8492887  67.4934483  75.4649925  10.2847195  68.4342241
  25.7699775  82.6312495  34.0179133  26.7154025  82.7405882  34.1201282
  25.6646585  82.2665644  33.1391954  87.6808834  26.0000896  67.2590876
  88.2630539  25.2613926  67.4369383  87.9982948  26.6984487  67.8315973
 107.9820061  16.2523997  76.3788223 107.4132442  16.4539170  75.6357670
 108.7688637  15.8773077  75.9833527  68.8856077  26.9003439  44.4397831
  69.1606283  27.6698709  44.9382019  69.3644190  26.1734080  44.8379517
  76.9089794  24.1331744  47.9881811  77.5072289  24.4616437  48.6593294
  76.4557266  23.4022403  48.4083366  82.3616219  31.4912081  27.4816632
  81.9607735  32.0810676  26.8432093  83.2753849  31.4237309  27.2047091
 104.0142345   9.8781341  31.5789628 104.5773602   9.1846418  31.2351727
 103.1239223   9.5635694  31.4220381  85.2325249  21.6442704  77.1793985
  85.6604385  22.4849105  77.0167685  84.9524593  21.6909552  78.0935192
  57.7775144 106.0282214  66.7345285  57.7419423 105.3833518  66.0280514
  56.9301557 105.9502610  67.1728659 106.5299606  43.1744337  38.3375549
 106.6540909  42.3399687  38.7897682 106.9571018  43.0531645  37.4895668
   2.5451233   1.5429957  33.3232474   2.1571113   1.5968876  34.1966152
   2.7291252   0.6117734  33.1999540  45.1361418  17.0797682  42.9382372
  44.8410177  16.2480736  42.5675344  44.4066429  17.3702908  43.4856462
  36.4160538  18.0630934  41.8175840  37.3123717  17.9551959  42.1357107
  35.8712292  17.6668489  42.4975777  97.3830605  40.5015182  41.3178110
  98.1278038  39.9455357  41.0887432  96.8153477  39.9371791  41.8426561
  94.1595840  62.4722958  57.6701832  94.8756981  62.0579815  58.1515980
  93.3706760  62.2188854  58.1493807  99.2975616  32.4862075  36.1077547
  99.2526531  31.5382385  36.2325263  98.4918022  32.8183246  36.5035868
  91.0010053  96.2514718   5.6800854  91.4846755  95.5630047   6.1364948
  90.1214457  95.8913071   5.5665791  99.4476604  22.0579314  28.5191941
  99.1229725  22.1337223  29.4164491 100.3593445  21.7830944  28.6168003
 108.5072613  46.0331583  68.4390306 109.0300846  46.4590406  67.7596807
 108.2253647  45.2087212  68.0427170  46.4233731 104.3445033  70.7114220
  46.8326234 104.3644447  69.8463488  45.4891729 104.4590405  70.5371237
  66.9233942  30.5185437  50.4312563  67.5129461  30.3070951  51.1550999
  66.6943979  29.6695781  50.0530434  82.2062874   7.0962775  50.5287743
  82.7540493   6.9792366  51.3049793  81.8207073   7.9657185  50.6366158
  94.6203471  92.6827962   5.7425606  95.5028582  92.4562056   5.4492008
  94.6412278  92.5490935   6.6901505 106.7497826  11.4232385  39.4139123
 107.1033382  11.2865269  38.5349679 105.8002090  11.3906455  39.2978525
  75.6870079   4.2968699  48.4959602  75.9424210   4.2816609  49.4183302
  74.8223686   3.8865346  48.4800625  28.2297900  80.9912307   8.1194603
  29.1354849  81.2807400   8.2296002  27.7387621  81.4858730   8.7755501
 102.3482513  83.7684727  49.2382431 102.0815754  82.8860188  48.9805889
 103.2299328  83.8667870  48.8787794   7.8736545  41.8352509  72.2590637
   7.4065162  41.2646055  72.8692913   7.1816494  42.2876453  71.7766762
  39.9795916  79.6411498   0.0988972  39.2714121  79.6356566  -0.5450523
  39.6374514  80.1602013   0.8267510  99.9168682  54.8435211  11.5269256
  99.7616196  55.7320642  11.2065887 100.8688641  54.7793484  11.6032183
  32.8416347 106.6061838  54.1189146  32.4238919 107.4540286  54.2701817
  32.5101518 106.3245779  53.2662439  67.5621367  20.2889872  16.8050110
  68.4136152  20.7257080  16.7828596  67.6823664  19.5026040  16.2726772
   0.8237697  21.9334650  52.9781961  -0.1272725  21.9523978  52.8715038
   1.1411716  21.4543676  52.2127199  55.3225660  21.3348508  32.1629071
  55.8657551  21.1099219  31.4075375  55.0972080  20.4914546  32.5555015
  60.4159355   9.9587405  48.7869215  60.6506634  10.8198738  49.1327333
  61.1733007   9.6961486  48.2637882  41.1510705  91.4111472  64.4071341
  40.6788825  91.0796917  65.1709461  42.0428895  91.5582991  64.7221613
  56.9827557  38.6029530  72.0462322  56.6622448  39.0804720  71.2810612
  57.4225521  39.2675781  72.5764036  39.0429448  96.7502773  80.6787109
  39.1391658  95.8493865  80.9875298  38.6698960  97.2205097  81.4243317
  65.3959274  35.6326389  42.0853901  64.5634842  35.5380869  42.5483465
  65.3438616  36.4947009  41.6726303  74.0751410  17.8091705  36.0139036
  74.9410105  17.9118180  35.6189752  73.8955259  16.8707156  35.9566975
  70.3361750  20.6060839  87.0303249  69.6128225  20.0178289  86.8136501
  70.3521633  20.6236982  87.9872227  86.3321018   8.6108804  50.8969259
  86.0380077   9.4814330  50.6288338  85.7266235   8.3575398  51.5936613
  20.9961032 102.9397846  40.4371119  21.3121270 102.4919090  41.2218237
  20.1410436 103.2888982  40.6885672   1.5359928  30.5775046  62.6329994
   0.5810215  30.6072879  62.6911354   1.7564251  31.2353611  61.9735527
  64.9286079   0.6787143  42.4745417  64.4364166   1.4650489  42.7104664
  65.8408308   0.9671288  42.4446011  51.3635968  97.2720165  70.6309986
  50.5967282  97.0759023  71.1692333  52.0419454  96.6799367  70.9558201
  74.4398880  32.8448462  49.8352528  75.3257322  33.1641006  50.0072575
  74.0114212  33.5649276  49.3725109  91.4835548   6.1355036  40.7549143
  91.0727692   5.3954482  40.3079176  92.1815872   5.7417166  41.2782812
  77.1412563   6.3977969  44.2492390  76.3080406   6.7207551  44.5922852
  77.5947142   6.0447228  45.0147104  60.0187302  28.4751320  37.0283031
  60.7830238  28.3828402  36.4594722  60.3854132  28.6119223  37.9018354
  58.9670944  32.2653484  79.6136236  58.3734226  33.0012178  79.7628832
  59.4808388  32.5234938  78.8483381   5.7768776  48.2738829  73.0025721
   5.8111335  47.9460955  72.1039009   6.0302402  47.5240135  73.5408497
  80.5885696  21.1851573  25.7594085  80.5932045  20.7825494  24.8910093
  81.0458851  22.0175195  25.6399560  96.7058754  20.3904748  84.3042564
  96.3073158  21.2388563  84.4982433  97.1656227  20.5256867  83.4756565
  75.0849819  24.7582126  44.2027092  74.8434067  24.3513775  43.3706331
  75.8480263  25.2968740  43.9933300  86.7895222  31.3641644  40.2810335
  87.0964241  32.2577310  40.4345894  86.1104774  31.4556789  39.6126318
  87.7544689  29.6837568  42.9289627  87.0492935  30.2590823  42.6323795
  88.5022354  30.2675462  43.0564928   9.7136451  22.6957464  69.7262478
  10.5012275  23.2397461  69.7296619   9.9940254  21.8708706  69.3297720
  58.8518143  37.5344014  79.4283533  58.0663776  38.0642581  79.5646238
  59.3380833  37.9979014  78.7464905  43.8054799  95.9818948  71.2930441
  44.3348169  95.8561433  70.5054998  43.9889096  96.8814946  71.5637970
  49.5925140  27.9522324  59.6705675  50.2766037  27.3285937  59.4270086
  49.2724419  28.2946920  58.8359976 100.2841187   0.9425880  90.4192543
 100.6248760   1.5032735  89.7222996 100.7771111   1.2017648  91.1977291
  98.9815044   7.5412011  30.2367187  99.3870735   6.8025613  30.6907630
  98.5517502   7.1485382  29.4768763 103.7918377  37.5580120  69.2545986
 103.6804485  37.0256925  70.0422955 103.8268471  36.9229102  68.5393000
  72.2398901  18.3440626  74.3687057  71.7379141  18.4217954  73.5574055
  72.1759748  19.2090011  74.7737074  97.9713249  32.0145655  78.8195705
  98.2149220  31.8211913  77.9143095  97.9736710  31.1623931  79.2554903
  92.9646778  34.5277977  60.5070925  93.1208420  34.5686030  61.4505863
  92.0744133  34.1855645  60.4262543 104.3595600  28.4997630  84.1073704
 104.8619938  28.4018803  83.2985401 104.7302151  29.2760682  84.5271206
  56.8319702   7.6763338  58.4484911  57.3136425   7.5458789  59.2653179
  57.4958134   7.5962108  57.7635622  89.6384239  25.0785017  47.3790312
  90.1334953  25.8892727  47.2616291  90.3017998  24.4209719  47.5883579
  14.0490867  45.4459381  33.6702156  13.4289886  46.1664677  33.7821794
  14.5770313  45.4580498  34.4685674  89.0276527  16.7512608  64.7756052
  89.4797611  16.3264513  65.5045509  88.5495949  16.0427380  64.3446922
 108.3470727  76.7542036   2.4702179 107.7775575  75.9881599   2.3990738
 107.7847768  77.4376614   2.8348267  85.5553197  98.3098096  52.7949095
  85.4862641  99.2381257  52.5719929  85.7722234  98.3028496  53.7271833
  18.1471397  37.7664804  91.8257618  18.5349323  38.6415219  91.8380356
  18.5808899  37.3022103  92.5416851  54.0743065  17.9568684  68.2817268
  53.2033920  18.2352185  68.5650301  54.3778276  18.6632454  67.7115154
  81.5260983  51.7877388  83.1053257  80.5787659  51.8034649  82.9691601
  81.8838120  52.2627544  82.3552418  45.1787423 105.8068012  17.6966906
  45.3231572 106.0095239  18.6209631  44.9787854 106.6520745  17.2944939
  73.8023281  22.2429991  62.9799175  72.9534054  21.8498826  63.1824541
  74.3067884  21.5326118  62.5835609  82.7205372  42.4617767  76.0268927
  82.7059650  42.7044773  75.1010847  82.2682381  43.1797171  76.4698553
 105.0855064  25.0451875  54.7505474 105.4808235  25.7825589  54.2855310
 104.3258572  25.4217219  55.1948404  93.6303234  24.9982858  81.0473156
  92.7039528  24.7655272  80.9849930  93.6288643  25.9189987  81.3090706
  61.2891483   5.6892365   3.6924440  60.6014204   5.4909515   3.0568758
  60.8168030   5.9167749   4.4932848 101.4842129  14.8900723  47.9211140
 101.3073349  15.8240211  47.8084755 101.9680214  14.8356175  48.7452459
  73.4259462  97.0480341  36.4422894  73.1182431  96.3157440  35.9081554
  74.3226670  97.2014201  36.1446309  65.1951122   9.6501470  46.3425875
  65.9902620   9.7534728  45.8198071  65.0268984   8.7078506  46.3390350
  86.4193439  18.5788023  70.8679962  85.8954716  19.0381467  71.5243387
  87.3244572  18.7052965  71.1526012  31.8630075 105.0435275  62.9694557
  30.9086799 105.1168296  62.9585457  32.0399379 104.1680983  62.6251411
  70.3775072  15.6326401  26.7338991  71.2672520  15.9850729  26.7144227
  69.8609781  16.3102531  27.1701002  94.6786118  10.7260144  41.1528158
  94.9802876  10.6240642  40.2501392  94.5201206   9.8316455  41.4548397
  72.0052338  21.9436407  82.7731419  71.5448713  21.1564422  82.4822617
  71.5842581  22.1751404  83.6010456 101.1296463   0.1166155  50.7710648
 101.3093948   0.9085020  51.2778521 100.7218266   0.4350523  49.9657583
   3.1881858  51.2594366  65.2031136   3.1552078  51.0671091  66.1402130
   4.0541031  50.9589148  64.9272585  88.1405067  31.3569188  51.1168432
  87.4308014  31.9194031  50.8067417  88.0771732  31.3955522  52.0711660
  31.7418479 106.5042182  49.7788954  32.5295495 106.5741071  49.2395735
  31.0360908 106.8188689  49.2139721 113.3819009  19.9887879   2.3618996
 112.9340459  19.1429575   2.3468125 113.1820012  20.3808458   1.5118611
  79.0701151   5.0064665  81.7304802  79.9974012   5.2220190  81.8300247
  78.6337090   5.4993546  82.4253464 108.9160252   7.2797018  15.2013755
 109.4808769   6.5361863  15.4120052 109.5175076   7.9579288  14.8940361
  72.4007988  42.1969271  78.1718254  72.9844236  42.2761345  77.4172783
  71.8526554  42.9807234  78.1339598  59.2349243  33.1754112  84.8937702
  58.4820080  33.5310078  84.4216442  59.7038078  32.6561475  84.2405224
 106.5956974  16.8659592  59.8777342 106.3958740  15.9499371  60.0706291
 106.8214703  16.8711126  58.9475584   7.3862555  83.8100631  12.3958981
   6.9088461  83.3734806  11.6904175   7.0310214  84.6987755  12.4112808
  94.2518616  60.1491785  69.8530436  94.2453957  60.1167822  70.8096743
  93.9387989  61.0285425  69.6410513  75.2544451  38.9742064  59.5679188
  74.7625780  39.0375113  60.3866339  74.9203062  39.6931696  59.0315628
   2.7588226  44.5562029  80.6586647   3.1096031  45.4344893  80.8062935
   3.4576370  43.9679766  80.9448147 103.3363819  41.9299603  40.1698256
 102.9382515  41.7246723  39.3239093 104.2294216  42.1994448  39.9551344
 108.6653137  63.7375402  38.1340027 108.0348492  63.1590271  37.7049732
 108.2536125  63.9640665  38.9679193   4.9427368  33.4973216  51.4964294
   5.8859874  33.6202288  51.6031933   4.6061660  34.3744111  51.3129425
  15.1774551  39.2789531  46.7331743  14.2769863  39.5025349  46.4978027
  15.5048229  38.7824345  45.9831524  78.4467077  38.0622554  67.7090693
  79.3297482  38.3906889  67.5399542  78.4399128  37.8647327  68.6456394
  10.4049827  56.5623379  32.7267361  10.9726478  55.8123398  32.9041982
  10.4019310  56.6399670  31.7726946 111.3420677  36.0681510  60.8131170
 111.0507393  35.3515267  61.3768673 111.8089390  35.6357622  60.0980663
  18.7290289  69.5261378   0.9481728  18.5029223  69.6720643   0.0295841
  18.5285380  68.6026318   1.1003983   0.1769879  62.1081306   4.1123688
   0.6552460  61.4879299   3.5620510   0.2473738  62.9429228   3.6493313
   6.9226886  37.8945708  49.2264366   7.4228050  38.4522653  48.6305428
   6.4463474  38.5082173  49.7856951  70.0734854  14.3483007  57.3404455
  69.9286127  13.9771581  58.2107878  70.6323385  15.1099288  57.4948406
  86.3844299   0.3007866  56.2978983  85.5213261  -0.0491634  56.5188360
  86.6864109  -0.2465302  55.5729914  78.1561518  85.5042839  46.2772799
  77.6229715  84.8846912  46.7753315  78.0568504  86.3344193  46.7433786
  96.9588757  19.1173089  44.8181915  96.4142323  19.3614495  44.0698719
  96.5783405  18.2977986  45.1341534  40.0424911  61.5098095  21.8253708
  40.9418823  61.5158272  21.4978099  40.0746395  60.9530067  22.6032972
  85.3943253  34.6867728  56.8718624  84.9911976  34.6627736  56.0040236
  85.8944416  35.5028820  56.8811512  95.5124378  58.4469843  50.0607491
  95.0097561  57.6373529  49.9711180  96.1251354  58.2707024  50.7747221
 102.9680443  34.0852594  56.4618158 103.3999252  34.4856215  55.7072210
 102.4479961  33.3728385  56.0900068  99.4544983  63.7685966  51.4795351
  99.5590401  63.4664154  52.3817492  99.7436333  63.0295134  50.9443808
 108.2611752  54.8596668  60.0531387 107.8554153  53.9944792  60.1083660
 109.0508556  54.7209263  59.5302820  87.8885555  85.7792282  76.1304522
  87.1663666  85.8335304  76.7563391  87.9684067  86.6661263  75.7793522
  72.2959757  23.2142997  89.3684959  72.5454712  23.9087605  88.7588120
  71.4825487  23.5252428  89.7658348  13.1260254  47.8681183  47.2818184
  12.1960880  47.7127123  47.1166134  13.5027935  48.0116653  46.4136744
 100.4548074  81.8635733   1.4574063 101.0362674  82.3295362   0.8565628
 100.2752925  81.0313709   1.0198605 107.1151162  50.4335068   7.7557575
 106.5751267  49.6431739   7.7598869 106.7600203  50.9699058   8.4645760
  55.8354950  42.1401024  91.1793613  56.2129498  41.4711428  90.6081772
  55.9354734  42.9568243  90.6902790  91.2338448  61.6022015  67.7297497
  92.1577930  61.4528418  67.5291586  90.8566666  61.9105005  66.9057846
  74.9368477  41.5939093  58.5660505  74.8770571  42.5269413  58.7712431
  75.6446648  41.5346622  57.9243946  94.6318245  29.5486546  43.7758017
  95.3166866  29.0518713  43.3281422  94.9167347  29.5799661  44.6890736
 101.9859123  24.0645862  49.0540409 102.1413136  23.1624031  49.3335867
 102.2369766  24.0757656  48.1304216  68.3810758 103.5468400  57.0170593
  68.1550168 103.0250094  56.2471104  68.3157014 104.4541321  56.7191029
 106.6730118  47.0567179  22.6859593 107.5470161  46.7121553  22.5025821
 106.2935257  47.2191191  21.8223357  89.7843647  35.9575725  74.7620440
  88.8344479  36.0753250  74.7664309  89.9927998  35.6591105  75.6473160
  72.1846437  98.3503789  66.5557766  72.0048665  99.1051579  67.1163321
  71.4965009  98.3764756  65.8909464 100.0645542  45.5945683  53.6962843
 100.9254360  45.2431440  53.4691000  99.4906902  45.2977228  52.9900265
 112.8371239  34.5299220  48.1838036 113.7317371  34.2875600  48.4228754
 112.3206234  33.7436461  48.3605146  87.0310020  18.9471066  74.2115450
  86.7260551  18.7887037  75.1049376  87.9593372  19.1589046  74.3093538
 107.2574711  39.3416667  53.4373283 107.7320385  39.5108843  54.2511988
 106.8758583  38.4722853  53.5589123  80.5745316  12.0785666  57.6783276
  79.9659777  11.3398278  57.6910257  80.0669479  12.8129721  58.0236435
  78.9712954  68.8966513  79.7600698  79.1478634  67.9710388  79.9282932
  78.5649157  69.2134237  80.5667591  95.8961296  36.2375283  55.7874346
  95.9071159  37.0977044  56.2072086  96.6756153  35.7963037  56.1250162
  85.2373505  44.3251896  68.2951260  85.3771877  44.8627520  67.5155735
  85.7715321  44.7410774  68.9718246  62.8913307  25.8112717  85.8951855
  62.1292496  26.3472342  85.6756115  63.4032583  25.7803082  85.0869751
 104.1009808  61.8449879  39.9423790 104.9177647  61.3921309  40.1521730
 104.3225574  62.7747583  39.9938965 101.1668682  45.0350904  38.2496023
 101.0147381  45.7946682  38.8118505 101.7677402  45.3525686  37.5755215
  67.9440308  42.2883940  76.2944221  68.7146997  42.8543758  76.3387251
  67.4019051  42.5636435  77.0337296  70.6782818  43.0508041  58.8295460
  71.4680862  43.4887171  59.1468239  70.3634930  43.6097383  58.1191015
  73.3054876  20.5176663  86.6426277  72.3691273  20.3595209  86.7628384
  73.6169481  19.7539675  86.1568451  94.8181152  26.6574097  36.7520499
  94.0788364  27.2646570  36.7828512  94.4579315  25.8611798  36.3615131
  90.1656437  46.9469357  71.1707067  89.3342400  47.3890209  70.9987974
  90.5818653  47.4757957  71.8513632 101.0338974  32.0994997  40.1074982
 101.4550877  31.8085027  39.2987037 101.7606258  32.3231602  40.6889391
  91.2531662  50.4065418  79.3719530  91.6535759  49.7263193  79.9134350
  91.3468170  51.2082624  79.8864508 104.4548035  40.3426504  71.6094208
 105.0554085  40.4987764  72.3382044 104.8569489  39.6273184  71.1166620
  87.8567791  62.3331118  22.6701999  87.4484730  62.8176355  21.9527340
  87.7891922  61.4149618  22.4081516  87.6926613  62.0191574  68.4624624
  87.8306484  62.3179197  67.5636148  87.3991394  62.7999449  68.9319849
   4.0488006  38.6613846  58.3337975   4.8077251  38.5294652  57.7655888
   4.3282177  38.3302999  59.1873455   3.1262161  44.5584631  47.0083666
   3.5168411  44.5438814  47.8821135   3.0670787  43.6367416  46.7570400
  81.4312744  65.3620291  81.8279457  81.9939613  64.6523952  82.1378326
  80.5458927  65.0870609  82.0661068  25.4578593 100.1534112   3.2095730
  24.8003390  99.6023495   3.6340916  25.5656245  99.7702391   2.3390495
  71.4350176  74.9678707  60.6400728  71.9079494  74.4423628  61.2853718
  70.5152559  74.8859978  60.8922005 107.0626259  36.8667293  71.3389587
 107.0406723  37.8017879  71.1354446 107.0395088  36.8291163  72.2951412
 100.5797577  40.8456945  84.4067001  99.7500610  40.3684044  84.4122314
 100.9774399  40.6249523  83.5644627  17.5670531  67.4670000   4.9971592
  18.3483031  67.7269001   5.4853546  17.2329333  68.2841499   4.6272099
  95.5425358  43.9806128  66.4056253  96.2779713  43.4170580  66.1652660
  94.9869728  43.4279633  66.9553137 101.1368465  53.2150841  41.5700769
 101.6941738  52.5166464  41.2268543 100.2459621  52.9367924  41.3577223
  96.5471458  47.7956581  51.7489290  95.6017876  47.7466583  51.8907976
  96.8098736  48.6157084  52.1669245  98.9104939  21.8723083  43.4625578
  99.0149593  22.1599555  44.3695164  98.7051392  20.9397745  43.5291910
 112.5072002  15.1579571  45.4687643 113.3705997  15.2746797  45.0723410
 111.9052219  15.5909419  44.8634768   4.8995926  41.8515396  50.3513908
   4.7146370  41.6190577  49.4414568   4.5095111  42.7187443  50.4610634
 104.8038531  96.6833909   5.3618252 105.2986766  96.7926343   6.1738884
 104.4484712  97.5531800   5.1790440 108.0432606  24.5626378  48.4707737
 108.6541271  25.2180743  48.8076448 107.3250198  25.0738716  48.0979490
  95.0136948  50.6140804  61.9012833  95.4381275  50.3446007  61.0867453
  94.1229916  50.2704048  61.8323231  86.7009830  55.2193308  54.7570562
  87.4975109  55.1975298  55.2874279  86.2916279  56.0569525  54.9739981
  88.7407875  21.9563937  87.3677540  89.1353607  21.1498618  87.0360184
  89.4851685  22.5300694  87.5494862  98.7092876  26.6194725  57.4756813
  97.8715134  26.3464236  57.8495979  99.1133881  25.8059335  57.1738720
  70.2940083  43.7812757  75.9687519  70.5310631  44.6915674  75.7915163
  69.9840641  43.4463120  75.1273489  49.7107271  10.2688486   0.5681717
  49.1009000   9.7052509   1.0443127  50.5665925   9.8610241   0.7001125
  59.5834112  36.2557817  81.8238544  58.6623049  36.0416079  81.9719410
  59.5879745  36.7328215  80.9940052  88.2245541  50.9172106  54.0831137
  88.7399292  50.2221727  54.4924212  87.8067207  51.3689947  54.8162794
  79.4098425  60.5049086  57.5762224  79.6620798  60.2511168  56.6884184
  79.4709539  59.6953297  58.0832481 111.3567829  23.3423710  28.8535357
 111.3600731  23.6705065  29.7527289 111.5301228  24.1151428  28.3159375
   8.2995512  80.2464635  16.1412441   8.0907538  79.6400363  16.8517983
   9.0709021  79.8663337  15.7208359   1.2520172  37.2632432  89.9628353
   1.7083503  37.8089380  89.3223572   0.3371479  37.2782421  89.6817398
  89.7490120  23.0179477  61.1518764  89.0619278  22.3515105  61.1549997
  89.5682049  23.5447192  60.3733826 108.0722523  26.5757585  65.9411001
 107.2899246  26.5104890  65.3934383 108.7901211  26.6974616  65.3197432
  43.2985690  76.3897975   1.9868195  43.2414343  76.0056670   2.8616917
  44.2371943  76.4983137   1.8337166  85.5087566  14.5950258  78.1307745
  85.8607483  15.1021993  78.8622856  86.2817097  14.2416334  77.6904535
  92.9209042  66.9497728  83.5647011  93.0400276  67.4086666  82.7331638
  92.8816986  66.0241652  83.3239841 107.6288891  33.9529109  82.4779606
 108.3268356  34.4576311  82.0603943 107.4858379  33.2106662  81.8907356
  97.7036858  51.6775322  43.1473398  96.8051052  51.9953012  43.0589771
  98.1484032  51.9950867  42.3614502  95.8968879  83.3791406   4.6556103
  95.5171300  82.8881867   3.9269268  95.2865935  84.1020257   4.8012459
 107.9781342  52.3012829  77.7873230 108.6027050  52.8063726  78.3079243
 108.5234165  51.7242289  77.2526264  80.7541370  41.4401960  69.1595745
  81.4936161  41.5450764  68.5609055  80.6649780  40.4931736  69.2664862
  76.9310665  48.2132196  64.4637728  76.6579199  47.4117756  64.0173340
  77.7089119  47.9578924  64.9597549  87.3308659  50.6053734  89.1973305
  86.9364643  50.4058981  88.3482838  88.1602669  50.1275396  89.1943359
 106.1995888  33.9345193  73.6871815 107.0983696  33.6241794  73.5770988
 105.6609249  33.2598758  73.2737446  91.0419559  23.1062984  35.6295991
  90.5575657  22.9599142  34.8170924  90.5229950  22.6633668  36.3009548
  73.9476252  85.1947021  44.3382025  74.3240023  86.0682392  44.2309141
  73.3231831  85.2896404  45.0574350  99.8875618  40.6378698  51.5213442
  99.1861057  40.0149870  51.3310671 100.6783962  40.2191591  51.1814976
  85.3021431  17.5894070  49.9320555  85.1604176  17.1409094  49.0983915
  85.8022785  18.3721423  49.7009373  84.4212246  84.1661453  56.7334223
  84.2817307  85.1086044  56.6409636  84.5460510  83.8534546  55.8373880
   5.2822639  81.6151619  48.8577271   6.0781051  82.1236801  49.0135050
   5.5828716  80.7074833  48.8132334 105.5089378  48.1970310  61.2763214
 106.0980701  47.9252863  60.5725431 106.0185814  48.0722284  62.0768976
  74.6396828  57.4568081  54.9747515  74.9593210  58.3517027  54.8597670
  75.4249096  56.9125843  54.9158335  97.1320343   4.1841632  74.1546440
  96.6585732   3.6588368  73.5095882  96.9847393   5.0894779  73.8808870
 110.5383396  62.8275633  46.8830109 110.2715492  62.4123240  46.0628700
 109.7156048  63.0764866  47.3041534  49.9669220  27.4731684  38.8960981
  49.6985580  26.7411661  38.3407712  49.9137642  28.2393026  38.3247471
  11.9423343  19.6130610  33.6752439  11.6802837  20.2160072  34.3709588
  11.3059475  19.7629309  32.9761171  89.3480492  74.5864868  73.2973480
  88.5750961  75.1510954  73.2969904  89.4495487  74.3199778  74.2110777
  91.8310452  24.7078824  72.6971960  92.5333309  24.8932552  73.3206224
  91.4773083  25.5683637  72.4720764   0.2891876  29.9221897  44.9060249
   0.9251167  30.0458932  44.2013836  -0.2857827  29.2251635  44.5901203
  94.3188190  52.0900297  75.2183104  95.2080345  52.3582888  74.9869013
  94.4365120  51.2990379  75.7443380  93.1185818  35.5111456  63.2678604
  93.2726383  36.4550018  63.3082485  92.4709034  35.3446555  63.9527178
  74.4890261  10.0876355  58.8048887  75.1234770  10.6009185  59.3051338
  74.0254068   9.5714056  59.4642782  97.9188156   8.2432193  63.0726719
  98.1513119   7.8651261  63.9207411  97.2401237   8.8870335  63.2754374
 100.3178406  15.1279140  20.5583763  99.9914265  15.8719516  20.0523210
  99.8873520  14.3664956  20.1695991 110.7013226  56.5553570  60.5418110
 111.0509300  57.2972631  60.0482655 109.7511482  56.6556120  60.4839659
  90.9448719  47.1713972   2.1649981  90.5930042  46.7470837   2.9475427
  91.6739559  46.6122293   1.8966623  70.6560945 103.1286982  71.2659645
  70.6062268 103.0460477  72.2182846  70.9400224 104.0308279  71.1183834
  64.2347764  91.1614752  19.9639153  64.4533872  91.9956387  20.3793836
  64.7993898  91.1231769  19.1919136 104.4966984  58.0638123  55.8831167
 104.9393559  58.0873728  55.0347471 103.6525917  58.4864283  55.7246542
  96.1318684  58.2689285  69.2522001  95.5900860  59.0149117  69.5095301
  95.7104874  57.9276752  68.4633923  76.4138651  68.7651348  92.1981144
  75.6586504  69.2711115  92.4979019  76.4408016  68.0066538  92.7813911
 104.1182613  32.9787731  86.1278439 103.3468151  32.8634453  86.6826439
 104.5338917  33.7752652  86.4581108  71.1505890   3.7043098  80.9424973
  70.8237505   3.0344942  80.3418636  71.8666553   4.1244090  80.4660511
   6.7388870  59.6412039  41.7160320   7.4054863  60.3281069  41.7223358
   5.9783889  60.0415993  42.1374130  97.6358795  46.4445734  76.2419128
  97.8039932  47.0645285  75.5322504  96.9433022  45.8764362  75.9045839
  12.0231487  61.0823202  60.0744438  11.7262603  60.8321142  60.9493637
  11.2164451  61.2338400  59.5819998 104.7228050   9.3551487  57.7877235
 104.1177273   9.5957738  57.0861435 105.1432705   8.5533929  57.4768829
  83.9514351  35.6867290  80.1753235  83.3998203  34.9835324  79.8325825
  83.5053730  36.4914012  79.9111843 101.4542866  47.8677177  74.9866533
 101.4454174  46.9912243  74.6020508 101.2600136  48.4526157  74.2542744
  83.2400894  53.5326719  69.8585653  82.5924492  54.0473986  70.3400660
  84.0680218  53.9892244  70.0079679 108.9570999  21.5126491  13.1686103
 108.1458187  21.3624740  13.6538923 109.0331364  20.7548499  12.5887907
  99.2699051   7.5909072  59.3041849  98.3919525   7.9594326  59.4022799
  99.3446445   6.9570029  60.0174904  84.0762757 102.9339368  29.4894195
  83.5541200 103.6413554  29.1110754  83.4314489 102.3365585  29.8683357
 103.9650536  70.2823544  48.9835215 104.8179817  70.5457258  48.6380148
 103.6147594  69.6824455  48.3250141  63.6529541   8.4407830  59.1037941
  64.4698668   8.8968682  58.9016199  63.4480762   7.9517961  58.3068323
  99.1911174  86.1772926   1.9718086  98.2469798  86.2083275   1.8172943
  99.2797614  85.7648380   2.8310311  94.4558048   3.5324076  58.1086493
  95.1705456   2.9031622  58.2057476  94.3773746   3.6618149  57.1634865
  74.3534279  34.6209478  83.7487411  75.0139427  34.7761583  83.0735588
  73.5188341  34.7840405  83.3093166  10.8077003  29.1488600  91.1034966
  10.7093765  30.0936103  91.2218666  10.8292343  28.7969375  91.9933987
  76.1695051  58.0233002  61.6215801  76.7428732  58.6639690  62.0423269
  76.0030413  57.3688936  62.3000097   2.9551460  35.0149012  65.5621147
   3.3473922  34.2248964  65.9339666   3.4353210  35.1597643  64.7468376
  79.9979687  28.3017063  48.2365608  80.2437496  28.5504913  49.1275835
  79.1122293  27.9490161  48.3220577  77.6093197  58.8354778  40.5267763
  77.9693270  59.6031761  40.0826263  76.6777611  58.8465309  40.3069782
  90.9728050  38.8795614  75.3146982  90.8028412  37.9603148  75.1089621
  91.6781807  38.8538384  75.9612370  95.1394463  53.0494118  79.7962046
  94.7490120  52.1755075  79.7869158  95.0518799  53.3604431  78.8951921
 105.5588150  44.8634195  90.5000496 105.6898403  44.7889090  89.5547867
 105.5332470  43.9582872  90.8103943  95.7361031  33.5947466  81.4013958
  95.4175854  32.7370691  81.6827679  96.3073540  33.4056854  80.6569862
 107.8844357  30.2954006  61.7537975 108.0148697  30.0541210  60.8367348
 108.1678677  31.2083030  61.8039179  91.3423157  37.8216887  82.2449207
  91.0995293  36.9379044  81.9688606  91.0406303  37.8808188  83.1514168
 105.7952309   1.2966606  78.7036467 106.6782761   1.0676396  78.9935112
 105.7738113   2.2531489  78.7336969  99.5550919  55.3324318  57.1825981
  98.9370346  54.8272705  56.6543531 100.0176430  55.8819580  56.5499067
  13.2869579  53.2215691  59.9427652  13.1559040  54.1070843  60.2817631
  13.0176403  52.6481199  60.6603003  16.7663573 105.2758854  81.0673476
  16.1191176 104.7179716  81.4986742  17.5006007 105.3090733  81.6805458
  71.0999823  55.5380011  29.2936897  70.6843090  55.8515024  28.4904718
  71.9983244  55.3332376  29.0342951 106.7669582  75.2718210  71.2479115
 107.4007416  74.6624517  71.6263485 106.3405418  74.7721577  70.5516768
 100.9396172  50.0796700  38.9580035 101.7504406  49.6151781  38.7505436
 100.5942631  50.3503466  38.1072998  74.4703054  32.6331496  71.6236258
  73.9467716  33.2694077  72.1107769  73.9358759  31.8390751  71.6157913
  79.2608881  87.6819134  61.8132639  79.6780348  88.4240150  61.3756466
  79.9851274  87.0966721  62.0350838 112.5086689  35.6282067  41.7712975
 112.9087830  36.4508605  42.0530367 111.5716267  35.7540727  41.9208097
 110.6919956  84.2766476  73.4307909 109.9104500  84.7396851  73.7324905
 110.9103584  83.6823463  74.1486788  82.0588112  84.4150543  52.8769445
  81.5924835  85.0302219  52.3109579  81.4815712  83.6533165  52.9296732
 105.5323315  73.4916973  42.4929714 104.9982357  73.4466839  43.2860374
 105.7769108  72.5831509  42.3170328  16.3858940  64.7571468  41.8811178
  15.6909229  64.7985125  41.2242031  16.8680431  65.5767632  41.7716408
   4.0233852  44.5833921  61.5384912   3.6097862  43.7529707  61.7742252
   4.8806144  44.5531130  61.9633102  87.8316879  47.9174948  66.2539768
  87.8399658  48.8745165  66.2706614  88.6148453  47.6798248  65.7575750
 110.4513168  29.5976257  75.9485435 111.1308384  30.2205181  76.2063837
 110.5894756  29.4671845  75.0103903   5.5611087  57.7123499  44.2284489
   4.7838165  57.3181009  43.8326931   5.5777408  58.6057043  43.8851309
  82.1717453  47.1204233  65.9454489  82.3258400  46.5421772  66.6925192
  82.5394535  47.9622793  66.2143373  85.7429886  58.6337757  66.2829924
  85.0910187  58.4294891  66.9533873  85.2993298  58.4527254  65.4543686
  74.1588640  29.9578094  73.0858135  73.7244701  29.3862391  73.7189341
  73.7082291  29.7856212  72.2590637  14.2993785  62.1980095  61.1183023
  14.3752624  63.0816650  60.7582712  13.7192203  61.7404556  60.5097914
  52.3106817   9.3052895   0.7281124  52.6160577   9.2206938  -0.1751125
  52.9391244   9.8991138   1.1388027  96.4012051  69.8657084  83.8723755
  97.2502518  70.1369047  84.2213821  96.6165543  69.3117428  83.1220531
  77.5409985  73.2738113  78.0442619  76.7741013  73.8279390  78.1893349
  78.1256819  73.8095951  77.5082445  89.9135399  59.3830824  49.8772287
  89.8723221  59.3635750  48.9211178  90.7678032  59.0061283  50.0878811
   8.0465271  40.8745909  78.4461069   7.8936435  41.3290644  79.2745495
   8.0965187  39.9493384  78.6861801  10.7553627  46.0007334  22.7490854
  10.6541301  46.2182570  21.8224430  11.6904117  45.8242464  22.8529143
  25.9594920  86.5209706  12.0866310  25.7340147  86.4313443  11.1606991
  25.4949667  85.8030756  12.5168430   0.6213905  56.6598558  63.1413698
   0.5087139  55.9214449  63.7399387  -0.0751828  57.2710085  63.3811665
 109.0396881  66.5654230  81.1361599 109.6843147  67.2388029  81.3535213
 108.3396721  66.6881132  81.7773819  79.9971151  70.1480961  74.1941977
  79.1226387  70.2273083  73.8130856  79.9590874  70.6748724  74.9925041
  87.4149609  55.1697540  30.3014040  87.5317001  54.6447372  31.0932112
  88.0609322  54.8224306  29.6863294 111.7371368  48.3654451  59.1403913
 110.8251381  48.1047344  59.0118599 112.1200180  47.6530504  59.6523762
  94.1773319  50.7985878  43.7289095  93.2267284  50.8615780  43.6360931
  94.4720364  51.7067480  43.7969875  73.7945318  37.2446752  91.7138577
  73.1233644  37.5806856  91.1198330  74.5094490  36.9728875  91.1383057
   8.1412174  14.0903974  54.7592163   7.9124023  14.8367751  54.2053223
   7.4384166  14.0490663  55.4077530 102.2932911  51.3679838  64.8632622
 102.2624683  50.4519749  65.1393175 103.2226181  51.5955591  64.8916960
  94.4254589  25.9441113  88.1620502  93.8414574  26.0341048  87.4090099
  94.0792847  26.5593457  88.8084888  79.9054098  55.3975344  54.4899225
  80.7099915  54.9387407  54.2482948  80.2061176  56.2019920  54.9125957
  97.0466518  67.9704237  41.6716862  96.1515045  68.3011818  41.7461014
  96.9424725  67.0379782  41.4821386 103.8166523  39.7736263  76.7764187
 102.8649044  39.6838665  76.8248463 104.0478992  40.2917004  77.5473642
  77.5812197  75.0402880  61.0640907  77.5973177  75.7216072  60.3919506
  78.3975744  74.5573854  60.9352350  88.7425613  53.5963440  62.4674654
  88.9145756  53.8965082  63.3599567  89.5578289  53.7673473  61.9959402
  94.9303341  54.1990376  55.3586864  95.5687237  54.0198231  54.6683455
  94.4433308  53.3803940  55.4529572  89.1436768  37.1218538  56.6162348
  89.1345692  36.6921520  55.7609558  89.4951153  36.4608002  57.2126675
  98.3811092  47.3204470  55.5033398  98.7766266  47.2396851  56.3712502
  99.0209675  46.9257498  54.9108648  84.7202110  74.7411108  71.2174463
  85.4021454  74.2130566  70.8022785  84.8201752  75.6100512  70.8286285
  95.4242325  49.2547750  70.1724863  95.2937317  48.3740902  70.5240440
  96.0291290  49.1333151  69.4406462 106.0129642  49.4043589  86.0976601
 105.2593040  49.2844534  86.6754532 105.6720161  49.9125051  85.3616047
  51.6506484 105.1483281  12.4273312  51.1912634 105.9510548  12.6739514
  51.3873389 104.5087416  13.0890190   8.2378341  30.6399918  41.6342592
   7.5501396  30.3230357  41.0487270   8.7587024  31.2332129  41.0929441
   7.7296497  58.2891750  26.9062114   7.8458263  59.1689205  26.5473509
   6.7826702  58.1499624  26.8972278  82.1284580  16.9480789  78.4625864
  81.6709328  16.5321505  77.7319002  82.2967243  16.2340283  79.0774441
  73.1114101  74.7726870  78.7383413  73.7761450  74.5765877  79.3985748
  72.2941399  74.8356628  79.2326498  78.3889723  65.1217413  58.6251974
  77.9170084  65.5919170  59.3125200  78.0694914  64.2216206  58.6880112
   3.6463119  74.1297054  46.3315439   3.1172515  74.3062449  45.5536222
   3.4679557  73.2125282  46.5394115 110.4533863  61.1599684  69.5267057
 111.0617161  61.0454607  70.2568197 110.7699490  60.5567074  68.8543272
  23.6932232  52.0519686  49.4089985  24.3497135  52.7432775  49.4946432
  23.8943435  51.6330099  48.5721827  89.5056820  69.5760345  50.8167887
  88.6110210  69.8347521  50.5956745  89.5013809  68.6209393  50.7534838
  82.1578503  50.5860710  11.8054700  82.8114605  50.2392101  12.4126911
  81.5580463  49.8552275  11.6560590  17.3729564  78.2676554  54.8361731
  16.5209247  78.6554956  54.6365356  17.1677257  77.5014400  55.3719234
   5.7504036  14.1576350  48.5896015   6.6526939  14.4761527  48.6149597
   5.7511188  13.4904790  47.9032087   9.4122078  26.1127400  61.6159296
   9.6651317  27.0240116  61.4681196   8.4551097  26.1265969  61.6146708
   2.3399116  58.8556385  54.5633554   1.6008712  59.4568729  54.6559381
   2.5471832  58.5910845  55.4596138  79.6895885  76.7154980  47.8503370
  80.1354408  75.8685398  47.8611612  80.2147770  77.2550964  47.2593737
   9.9532940  62.6220703  50.5634880   9.1664745  62.4659777  50.0411940
  10.2052166  61.7552710  50.8819580 108.8954830  21.4588332  38.0225110
 108.5990715  20.5671620  37.8400373 109.2674923  21.7617869  37.1942234
  83.1002808  56.3751173  28.9213610  83.6989021  56.3417816  28.1751847
  83.6243534  56.0715485  29.6625972   3.9991523  35.2104950  58.4590626
   3.9118530  35.1310802  59.4089603   4.9369861  35.1106715  58.2955503
 108.1812477  80.5302143  14.6748316 109.1132355  80.3844643  14.8372483
 107.8811550  79.7216177  14.2596745 100.2139187  81.9175911  39.4983459
  99.4245148  81.4138794  39.2999721 100.0172997  82.3545265  40.3269958
 110.8808899  59.0746355  83.9291286 111.3210583  58.4227371  83.3836937
 110.1270199  59.3525791  83.4088802 112.3484802  58.3291388  69.0694189
 112.8723145  57.5376892  69.1936874 112.8797626  58.8802004  68.4946966
  79.9954748  55.9720659  42.9094172  79.6194696  56.3488770  43.7049437
  79.3016958  56.0530806  42.2549391  19.7442485  82.6212883  37.8988504
  19.5711471  82.2500992  38.7640047  20.6682731  82.4308968  37.7370548
   2.2286083  22.6692152  62.4704885   2.1875240  21.7776728  62.1245146
   2.5661804  23.1928205  61.7437792   5.3633167  50.2525043  48.5330963
   5.7528068  50.1115847  49.3960381   5.2329494  51.1993456  48.4808874
   2.3041393  67.0178509  63.0883360   2.6929905  66.4867067  62.3934174
   1.4551593  66.6087151  63.2558966  90.7393456  85.2992249  56.3540220
  90.3466892  84.4367599  56.4889431  91.5613365  85.2673912  56.8434525
  94.7042370  50.3131008  76.9916201  94.7313309  50.5553579  77.9172564
  95.4356194  49.7054815  76.8815565  96.7657280  65.0725126  68.6127186
  97.2052956  65.2772713  67.7874374  96.8798065  65.8589077  69.1463900
   9.6352626  63.2150173  62.0060825  10.0320484  62.8794765  62.8099537
  10.1598407  63.9839411  61.7829084  89.8787212  31.5386343  83.0261040
  89.0849209  31.0187960  83.1520748  89.9266148  31.6773272  82.0802212
 101.2739563  72.9120827  92.4469757 102.0969200  72.8999090  91.9582844
 101.3480568  72.1799612  93.0591393  83.0465126  74.3270683  66.1882019
  83.1835270  75.1326036  65.6896353  82.0951843  74.2474318  66.2579346
  78.1796598  21.5085244  83.4046364  78.3996201  22.2108150  84.0167141
  77.5958920  21.9202185  82.7674961  35.4129936  86.0880661  54.5301485
  35.9883739  85.3566551  54.3060875  34.7938587  85.7211304  55.1612234
  99.6977997  28.4397078  63.4360933 100.3049374  28.6532617  62.7275610
  98.8356686  28.4373832  63.0202150   4.0659477  74.2443275  56.1079836
   3.4062053  74.1716099  55.4182863   3.5643913  74.4392109  56.8996191
 104.7802639  56.4586735  57.9034281 104.9084473  57.1496677  57.2535610
 105.3712654  56.6908836  58.6196852   1.5532447  65.6859350  59.3018293
   0.6923629  65.9877110  59.5917130   1.9497825  66.4534330  58.8895845
  76.7144823  87.6200390  32.8714967  76.1572647  88.3945847  32.9478598
  77.3995113  87.8776932  32.2545791  80.7036400  58.9781094  35.4413581
  80.8425522  58.1919050  34.9133301  79.8534679  58.8392353  35.8586621
  20.5904152  74.3396568  87.4315071  20.1840259  75.1209068  87.8066349
  21.1549999  74.0052652  88.1283951  97.3456383  47.2777081  46.2206221
  97.0793533  48.0664206  45.7481194  98.3011150  47.3271704  46.2499046
  93.1627941  57.0885611  63.1955147  93.0187416  57.8389931  63.7719965
  93.3795357  57.4760866  62.3475266 112.4800491  75.4013062  57.0109701
 112.6308155  74.8619413  57.7872372 111.7216396  75.0015926  56.5851974
 112.7513123  36.3809490  52.2769022 113.0507374  37.1980238  51.8781900
 113.3465672  36.2416410  53.0134487  62.9538822  77.5705242  32.3263216
  63.4903097  78.3057213  32.0297480  62.1238899  77.9695606  32.5873065
   1.9560958  55.3383589  37.2066927   2.7202846  54.8026323  36.9940114
   1.7532207  55.1161718  38.1153774  24.5529796  50.2641678  64.1469336
  23.5983802  50.3298473  64.1212797  24.7304489  49.3260717  64.0782928
  71.0002136  68.8011742  77.0106792  70.1233625  68.5402489  77.2922373
  70.8589697  69.5906305  76.4881468  87.4211502  58.3857012  53.8346338
  87.7973747  59.0722466  54.3854046  87.3773479  58.7760353  52.9617357
  75.0154066  50.0889540  90.9231949  75.5229425  50.8991528  90.9702873
  74.4079208  50.2287579  90.1968098 107.4570942  52.4503613  61.4579773
 106.5317726  52.2218132  61.3697147 107.6627636  52.2667694  62.3746157
 100.0646210  62.2665453  53.8965511 100.5685043  62.5418901  54.6623898
 100.7239723  61.9635916  53.2722902   0.0359489  71.2248802  32.7937317
   0.9002830  71.2721968  33.2022953  -0.0014637  70.3472900  32.4133825
   1.5383007  55.6281900  41.2865067   2.1308281  55.0538206  40.8014917
   1.4547016  56.4064026  40.7354832  18.8661815  61.5741539  47.5611258
  19.6182109  61.3794136  47.0018721  18.4728958  60.7199383  47.7396727
 104.5960903  64.2242861  30.9121943 104.4552803  65.1557779  31.0816908
 104.1988087  64.0742016  30.0543594 110.5697918  58.2533360  66.6025114
 109.7542286  57.9360390  66.9903326 111.1995983  58.2379007  67.3231649
 109.8792076  35.5841041  64.2584801 110.5396843  36.0828447  63.7775803
 109.0432167  35.9281993  63.9439154  19.5493557  57.5305653  43.5755444
  18.6294605  57.4708748  43.8333464  19.8062374  58.4225082  43.8093948
 104.0795040  14.2366695  70.1833773 104.7417164  13.7169528  70.6390095
 103.9484692  15.0018013  70.7434034   6.0006954  45.4854107  73.9054060
   6.5361168  45.0697851  73.2295275   5.1199581  45.1402426  73.7591553
 111.2204933  69.1623831  35.4093194 110.5511951  68.5612535  35.0823402
 111.2631893  69.8549080  34.7499132  90.9608078  50.3576422  62.7866125
  90.0839329  50.3131294  62.4053907  91.5486050  50.1501560  62.0601988
  96.7382717  44.7562408  55.6761217  96.9086647  44.3174553  54.8426580
  96.9484043  45.6752539  55.5103302  78.3515787  58.2592058  56.2149715
  79.2600250  57.9599476  56.1774731  77.8632116  57.6054955  55.7145786
  89.4164276  63.6037683  51.6020060  88.9024734  63.6541653  52.4079466
  90.1045132  64.2594624  51.7153406 105.7888508  87.8150845  42.8164625
 106.4118385  88.4086418  43.2357502 105.2298450  88.3870602  42.2905493
  84.9338436  61.5768766  61.2076044  85.1620865  60.6473923  61.1936522
  83.9809990  61.5881872  61.2980604  97.9386330  55.6393051  36.5284801
  98.8246536  55.9496355  36.7152762  97.5820351  56.2855387  35.9190106
   2.3566677  67.0197678  76.4419222   2.6590492  66.1605930  76.1476231
   1.4950325  66.8525362  76.8238449  85.7853985  91.8146610  75.7110453
  85.0065517  91.4206505  75.3181458  86.0235119  92.5226879  75.1125097
  -0.2755211  45.4097652  25.9508157   0.3666450  46.1183357  25.9086275
  -0.0902604  44.9676323  26.7793250  63.3625937  77.3039341  57.4950266
  62.9073715  78.0091476  57.0349360  63.7285709  77.7231789  58.2738209
   0.3001644  60.2709150  85.4032326  -0.6274079  60.4998827  85.4617405
   0.4920055  60.2863836  84.4655800  91.0855389  65.6442785  26.8413401
  90.5247021  64.8686600  26.8311810  90.7281685  66.1890936  27.5425458
  83.0882454  63.4289742  57.1065855  83.5612392  62.6064396  56.9803429
  82.1732521  63.2082605  56.9324636   3.5044719  53.4435320  42.7963400
   4.4252731  53.6302233  42.9793835   3.0379345  53.7568998  43.5711718
 107.9745007  29.2998052  64.3346834 107.9679966  29.7730875  63.5026979
 107.1900272  28.7521410  64.3048286  19.3931343  93.9362621  89.3117619
  19.8558189  93.1023121  89.3934727  19.5093109  94.3589973  90.1626587
  32.3167709   5.5254681   4.4756138  32.7713970   4.8142654   4.0242302
  32.5066903   5.3809149   5.4025757  11.0271217  30.5516744  40.1899624
  10.6961109  31.0415268  39.4371605  10.6180050  29.6896911  40.1134920
   1.1272098  24.7897887  50.2742100   0.9975196  24.3624115  51.1208296
   0.2460720  24.8701477  49.9090052  98.5370159  60.0983667  53.4153318
  99.2485237  60.7210255  53.5646439  97.7822113  60.6450319  53.1969976
  94.6389771  13.9564657  84.5507050  94.6820164  13.9069557  85.5056477
  94.2692852  13.1148887  84.2836571 101.3970852  60.0765848  44.5294571
 101.7580700  59.6668434  43.7433052 101.5520668  59.4377327  45.2252150
   4.4045307  31.5458393  53.3741426   3.9095356  30.9284377  52.8356028
   4.5486976  32.3000693  52.8026676  25.3670551  60.8088541  40.8905077
  25.6920292  59.9698925  41.2172651  25.6188442  60.8199978  39.9670839
 105.3269100  61.0212803  68.9014816 104.8787880  60.3396320  68.4007072
 106.1980343  61.0738039  68.5082626 107.0351696  62.3474121  83.1538486
 107.1003342  62.1813822  82.2134209 106.3084316  61.7964363  83.4445477
  77.5659418  22.3161983  32.9936028  76.9366884  21.7209935  33.4010315
  78.4035301  21.8567157  33.0532670  22.4294139  61.5261126  39.9992061
  22.3594143  62.1748924  39.2989087  23.3678485  61.3517904  40.0712824
  76.1812687  76.6271687  56.5651131  75.4110861  77.1949434  56.5912008
  76.0187960  76.0367918  55.8293915  80.5192757  51.3717413  71.1383963
  80.7615280  52.2729158  71.3515520  80.1171589  51.4304304  70.2717400
  88.5199547  50.5990744  69.2459011  87.8173828  50.6064367  68.5958385
  88.7885380  51.5149307  69.3186712 107.0628452  51.4436483  52.3300934
 107.5053883  50.9642076  51.6297245 107.4192429  51.0720539  53.1370163
 106.1411190  80.0541782  54.4735241 106.8991375  79.8617315  55.0254440
 106.4055538  80.8184338  53.9614487 111.3928413  56.3561487  56.7644072
 112.0313740  57.0678473  56.7197037 111.0774899  56.2605095  55.8657217
  76.3429880  54.8485565  57.5791264  77.2299004  55.0233030  57.8938961
  75.8747005  54.5262146  58.3492184  97.9512787  44.3844986  78.2204485
  97.8451252  45.2125263  77.7521181  98.4642124  43.8371038  77.6258993
  81.0264111  53.6477613  80.4082966  80.2226734  54.0623617  80.7219124
  80.7594967  53.1725740  79.6214104 112.3981571  80.9470558  79.6588659
 112.6267624  80.3695107  80.3871632 112.2612667  80.3561020  78.9184141
  78.7020445  70.6878662  27.7273059  78.6487103  69.8948908  27.1938467
  78.7905693  70.3672218  28.6248493  61.0064316  74.1651344  87.1482468
  60.8794260  73.2495546  86.8996143  61.0576105  74.1489124  88.1039333
 106.8318558  82.7336693  52.9290056 107.0215988  83.4739304  52.3525953
 106.2729263  82.1595097  52.4053955 108.8612080  43.0942631  50.1822042
 108.3399677  43.6941004  49.6485996 108.3671188  43.0079603  50.9974718
  78.4204483  41.5949774  74.2137241  77.5843239  41.2931347  74.5687199
  79.0749073  41.0390997  74.6367073 109.3722534  84.9454880  52.5167656
 110.0532150  84.3386078  52.2265720 109.0512371  85.3487396  51.7101860
   7.9714920  52.5691271  53.8742828   7.1309520  52.9330397  53.5962868
   8.5221817  53.3350515  54.0365696 112.7790070  28.2223248  80.0519753
 112.0030308  28.7361240  79.8281193 112.8293610  28.2681680  81.0067558
 103.5694218  56.9881248  82.1597099 103.9898205  57.1076632  83.0113029
 104.2472267  57.2169733  81.5237617  13.6656524  82.7165222  58.9978743
  13.7615825  83.5334110  59.4874859  13.4274913  82.9940319  58.1132841
  20.7373859  42.7589941  91.8416595  21.0160114  42.4110460  90.9945869
  19.9735405  43.2991552  91.6391850 102.6458931  75.8443356  76.4662266
 102.3956776  76.0322571  75.5616236 103.5280323  76.2061357  76.5508223
  22.5095607  79.7186899  35.3473139  22.8034832  80.0827885  36.1823416
  23.3175708  79.5403290  34.8661232  84.6818924  66.7691469  39.3580675
  84.1079617  67.0035887  40.0873661  85.3350639  67.4684143  39.3329382
  16.8924190  54.7567749  52.9766846  16.3792469  54.3228912  53.6583185
  17.4773838  55.3444958  53.4548473   3.9241459  49.5960426  24.0753531
   4.4338943  50.4058504  24.0506935   3.4984161  49.5548439  23.2190299
  88.4565353  50.9893894  61.7743731  88.5383606  51.3408470  60.8877993
  88.5228920  51.7564106  62.3431492   3.8883354  47.4237490  56.3387775
   3.1420280  47.9415464  56.0368824   3.7748958  47.3707819  57.2877550
   4.7629692  71.1463881  61.8998957   5.2815391  71.3117266  62.6872826
   3.9624931  71.6550970  62.0290995  76.9655752  56.0721493  54.9262428
  77.8239536  55.8978701  54.5401812  76.9136095  55.4762793  55.6735516
  96.6715622  71.5699291  68.2328320  96.5276814  72.4897146  68.0102873
  97.0966911  71.5945911  69.0900898  73.0650806  47.6630211  78.2979584
  72.6048851  46.8885660  78.6214876  72.5937605  48.4007931  78.6849737
   0.3936435  33.3274341  52.8940153   0.3777649  32.6228142  52.2463369
   0.0147964  34.0795588  52.4390268  46.6362714 106.8434881  72.7754688
  46.2830876 105.9842156  73.0060005  47.4231576 106.6501547  72.2658968
  67.6975822  45.1144409  28.4036875  67.3733187  45.1915598  29.3009830
  68.0985117  45.9640121  28.2200551  79.5707369  56.6627216  48.6512947
  79.7653294  57.3075247  47.9711485  79.2590904  55.8952475  48.1716156
  13.1573440  38.7259650  27.3548818  13.5412838  39.0842462  26.5545940
  13.7899067  38.0718827  27.6519966  68.4464120 105.1180001  70.8874369
  67.8648423 104.6235583  70.3099108  68.5125589 104.5813211  71.6772699
  74.0899897  49.9231672  86.0015965  73.1611776  49.8862362  85.7731724
  74.3705511  50.7950401  85.7234669  11.5789272 106.3456440  45.6883955
  12.2322036 105.8260822  45.2198648  12.0829059 106.8326283  46.3403845
  69.4832706  74.8461485  53.2863998  68.7662935  75.3853750  52.9526186
  69.6585989  75.1950598  54.1603279 107.9928112  63.5401630  51.9478416
 108.5973930  62.7988291  51.9141722 107.1666336  63.1908178  51.6137552
  91.3625145  27.6905680  35.1069880  90.9262371  27.0027590  34.6041894
  91.5261745  27.2944236  35.9628606 108.7942410  62.8057098  85.1433849
 108.3920956  62.8388834  86.0113716 108.0539894  62.7676439  84.5377445
  13.3133604   7.4894714  30.4228234  14.0908911   6.9321727  30.4559255
  13.3859160   8.0480480  31.1967468 112.2421646  68.9564419  37.8075314
 113.1235123  69.3056917  37.6753283 111.8157005  69.0539169  36.9561434
  25.9196998  67.2427607  56.6939497  26.7050888  67.7880144  56.6481304
  26.2091400  66.4421558  57.1315384  15.1684524  63.8180494  64.3848133
  14.3520595  63.7205839  64.8749542  15.7426693  64.3103933  64.9714088
  52.7825260  94.0417004  29.6815252  52.4926376  93.3209419  29.1223264
  53.7361288  94.0405655  29.5986152  97.1901608  49.2903185  33.6082840
  96.7984390  48.4767008  33.9257956  96.5120697  49.9519300  33.7449980
 105.2013016  75.4759884  56.3213682 105.8553123  75.5993176  55.6334019
 105.0105572  76.3610792  56.6319513  81.7206287  53.9031506  61.5564537
  82.6105785  53.6762953  61.8261957  81.1761284  53.6728430  62.3092604
 100.1253033  35.2442431  64.6342707 100.5091286  35.7904243  65.3202724
  99.7177410  35.8669567  64.0323162  97.2390366  64.1524029  27.3552847
  96.6453934  63.4589434  27.0672941  97.3734856  64.6915913  26.5759039
 110.9773350  53.6765909  44.2345572 111.4696121  52.9370928  44.5909834
 111.6479397  54.3107986  43.9809799   7.1665432 101.6566372  74.3163967
   6.6422989 101.1891079  74.9666309   7.8581287 102.0794964  74.8254490
   6.0641529  38.2736087  38.0257463   6.0028030  38.4460449  37.0862079
   5.3709938  38.8081121  38.4131241  92.3033047  35.8172631  77.0895052
  92.5180817  35.4129386  77.9301119  92.7714157  35.2888942  76.4430285
  69.7832444  33.2782156  18.7139618  70.5086473  33.7678415  18.3262932
  70.0470880  32.3610193  18.6406147 104.5200443  96.7811966  55.2226400
 104.5993805  97.3015404  56.0221243 105.4141903  96.7210293  54.8863173
 103.7126350  80.1174641  31.5640759 103.1926727  79.3139029  31.5768838
 104.6198654  79.8150682  31.5225863  18.4305526  55.7270002  15.6011379
  18.4768631  54.7716808  15.6391287  19.0901424  55.9731674  14.9526203
 112.5901031  71.7797947  60.7775545 113.2745838  72.3505878  61.1267185
 113.0645752  71.0346413  60.4089642  96.3644981  80.5026340  86.1590958
  96.8792725  79.7151709  85.9826374  95.4543972  80.2118111  86.1011600
  24.7621299  63.8786745  38.9846277  25.5344822  63.3241510  39.0951705
  25.0913669  64.6632862  38.5462093  41.6583159 100.7404358  13.6479008
  41.5848448  99.8664792  14.0313446  41.9360735 100.5834563  12.7454292
   8.0060340  80.7737732  24.7681975   8.4993316  80.4579926  24.0111208
   7.3264267  81.3346195  24.3942666  92.5748444  90.4862404  84.7423553
  92.5179386  89.7483349  85.3493881  93.3413506  90.2935982  84.2023659
  30.6844141 101.8457205   4.3529713  30.2915099 102.7182467   4.3293106
  30.3756049 101.4662106   5.1756680  45.8243754   2.1665954  87.5867748
  46.1664774   1.5814781  86.9108868  45.4125884   1.5822982  88.2233810
 107.8187943  81.6882610  32.1942496 108.6661625  82.1267891  32.2709799
 107.3608112  81.9084835  33.0054116  12.5487091  60.2312565  46.5498257
  12.6899959  60.1127625  45.6105518  11.9991542  61.0124540  46.6126919
  29.9080326  98.6936378  85.4802704  29.0531684  98.2883644  85.3347206
  29.7149040  99.4877911  85.9785271   2.3280098  68.2147551  58.4055424
   2.0546486  68.1675768  57.4894190   3.2078506  68.5904074  58.3739138
  29.4221546  73.9113760  72.7165842  29.6659900  74.6927643  72.2203970
  29.0874530  74.2497730  73.5470629  15.6147720  73.2747984  59.0056992
  16.2942268  72.7318525  59.4054317  14.7956611  72.9421616  59.3726444
  95.3272724  61.6955233  40.6377268  96.2368202  61.5022755  40.4105282
  95.0986958  62.4478388  40.0918293   6.3401939  74.6375895  45.9651518
   5.4337455  74.4748306  46.2260771   6.2810184  74.9057055  45.0481749
   0.3816558  56.3295174  74.2701292  -0.3173588  56.9834328  74.2724991
   0.2588035  55.8446360  75.0862360   0.4034759  73.1899595  30.3422117
   0.3737594  72.8974009  31.2531209   0.9450389  73.9789867  30.3616118
   9.9677707  54.0244961  60.8068275  10.2784301  53.1773996  61.1264324
  10.2574016  54.0573597  59.8950863  10.4353191  51.2569904  60.8517075
  10.5784942  50.9220123  61.7368746   9.5054008  51.1031961  60.6849194
 111.6894054  89.2114162  90.1679516 111.0318947  88.5444641  90.3656578
 111.1903858  90.0247478  90.0925064   3.8453056  74.7512245  48.9144564
   3.7257530  74.5253658  47.9920006   3.6817505  73.9335203  49.3843985
   4.2171623  85.0656033  88.6715412   4.6592571  85.8893585  88.8770008
   4.7158577  84.7021580  87.9397964   3.2709838  65.9023237  37.1088362
   2.6410820  66.6083527  36.9639754   4.1068699  66.3501167  37.2392178
  26.1480285  62.7484417  78.2033539  25.4984237  62.1057558  77.9184103
  25.7041217  63.5920906  78.1171036  10.6430484  39.2467666  66.1288261
  10.1378585  39.9177766  66.5879154  10.0226642  38.5304523  65.9937382
  58.5240318  26.7459488  52.2429085  58.2225372  27.0761442  51.3965607
  57.8269531  26.1573315  52.5324678  33.3435585  95.4376793  46.5161467
  32.3972274  95.5813313  46.5095615  33.6194946  95.6183529  45.6175661
 108.6170006  86.7815781  88.7122726 108.3961201  87.3337650  87.9622555
 108.0909634  87.1322060  89.4310093 106.6617966  81.4998817  36.2834549
 106.9648552  82.3296165  35.9147668 107.2156811  80.8376122  35.8701229
 109.8511219  58.2564735  52.9480982 109.3288517  58.0932379  52.1627188
 109.2121887  58.2773972  53.6605358 108.5184479  77.3538876  38.3551908
 107.6222420  77.2995377  38.0234003 109.0635204  77.3840952  37.5689197
  72.4307251  71.6031694  57.3794174  72.6343679  71.5254784  56.4473677
  72.9223251  72.3718405  57.6687336  85.7933712  63.9956760  73.1406260
  85.2196789  64.7411537  72.9635048  86.6465282  64.3885279  73.3250666
   4.1897441  38.5028481  61.1976433   4.8906376  39.1249347  61.3925409
   3.7830497  38.3267164  62.0460606  90.3604794  35.2948880  72.0227432
  91.2113476  34.9025083  71.8270826  90.4313087  35.5782413  72.9342937
  91.7210388  52.2957420  42.1505976  90.8026028  52.5586224  42.0906353
  92.2042847  53.1210423  42.1904325  80.7887363  44.1894436  76.6576290
  81.0085678  45.0847340  76.4000273  80.1749325  43.8909817  75.9865141
   4.4121505  93.0072212  66.6446447   5.2928020  92.6331139  66.6716433
   4.5172454  93.8333988  66.1728287  92.1678829  74.0925646  60.5723429
  92.2620201  73.1457329  60.6766319  93.0354881  74.4431448  60.7737970
  88.5859203  77.5579262  54.3055344  88.8689232  78.2044601  53.6589050
  89.1941738  76.8270588  54.1955328  94.4720840  52.6956701  59.1903257
  94.7193623  53.1697369  59.9842739  95.0266075  51.9154596  59.1947222
  82.3556995  97.4111938  40.8676338  82.1294403  97.9764748  41.6062117
  82.6322174  98.0159283  40.1791000  89.7898769  60.4120493  20.6305075
  89.3896580  60.5394125  21.4906478  89.9318600  61.2986231  20.2987576
 108.5371590  79.2369890  48.9208603 108.9460850  78.6614275  49.5671892
 107.6533127  79.3850374  49.2571878  71.9692850  77.0140600  35.1902509
  72.5077391  76.3620377  34.7417355  71.2703943  77.2163630  34.5682740
   0.7263042  55.5338812  30.6945515   1.4497425  55.9670973  31.1475396
   0.7087280  55.9401178  29.8280120  11.7960884  86.6196632  66.6139269
  11.5337612  87.5229549  66.7913198  11.3724186  86.4060688  65.7825994
  99.2664719  81.4968681  83.0845070  99.3201733  80.8575630  83.7948895
 100.1735115  81.7615795  82.9314327  18.2790996  52.6011992  71.7693615
  17.8494503  53.2473183  71.2088633  18.8630725  52.1236038  71.1801958
  17.0036032  14.6903514  16.9185543  16.3935568  14.0583610  17.2989035
  16.4704993  15.2010345  16.3092709  89.1113472  84.3076420  71.1350203
  89.6161652  85.1196861  71.0905457  89.2289734  84.0014362  72.0342636
   5.7363750  70.1374054  25.4746675   5.8779003  69.9563551  26.4038730
   5.7666351  69.2772818  25.0557375  21.9929744  55.8303308  81.3596821
  22.3861171  56.1142635  80.5344296  22.3929741  56.3939142  82.0219517
  17.2498180  39.5522165  55.0913191  17.6655056  39.5095515  54.2301464
  17.6470329  40.3150558  55.5114746  90.3473282 100.7705593  35.5070853
  91.3033867 100.7958794  35.5462408  90.0868320 101.6874790  35.4196620
   2.7075149  77.1491051  33.2053399   3.2366039  77.9467106  33.2162070
   2.0800354  77.2875786  32.4958849  13.3610489  55.1909018  48.2000685
  14.0320541  54.5638847  47.9302025  13.0231334  54.8402500  49.0241337
  64.7477057   0.2221107  47.5799990  63.8461497   0.5429458  47.5574923
  64.6629240  -0.7312871  47.5717020  97.5588989  59.9844980  83.4887791
  96.9186592  60.3539038  82.8806114  97.4529743  60.4983473  84.2893791
  90.5018616  76.4300537  26.3294840  90.4873848  76.1491489  27.2444224
  90.8227158  75.6665373  25.8495665  98.3837986  53.4790850  90.0458908
  99.1283798  54.0730953  90.1406574  98.0050087  53.7035275  89.1959667
  26.4110996  73.1515074  73.2860661  26.1251690  73.5817242  72.4802208
  27.1395732  73.6880922  73.5985518   6.8292858  91.7727280  66.8664980
   6.9337131  90.8229637  66.8093395   7.1668865  91.9990826  67.7331114
   6.3414814  80.5632782  55.4186964   6.6959144  81.2814999  55.9428740
   6.5166332  80.8186531  54.5129728  15.6579353  73.5142279  50.1390362
  15.0478984  73.9333534  49.5320511  15.6571342  72.5924492  49.8810482
 104.9389648  84.6930122   9.8402315 105.6151581  85.3149796  10.1088381
 104.9286175  84.0353394  10.5356407  82.1293545  86.4521885  65.6301975
  81.7402935  85.9154510  66.3206816  81.4970779  87.1569729  65.4897499
  99.0524387  81.3236427  78.8638210  98.4662247  81.2837124  79.6194601
  99.6339226  80.5710125  78.9717674  98.4624386  62.1683884  60.2287292
  98.4376240  61.4298153  59.6203470  97.5964165  62.1720552  60.6364346
  61.7613888  82.5755024  83.2841682  60.8684254  82.3856831  82.9963875
  62.0603323  83.2688808  82.6958656  12.7284004  46.3142872  79.1998720
  12.0182468  45.7543230  78.8862658  13.1881096  45.7786274  79.8463774
  38.1604814  77.4028469  22.3558044  38.2813501  78.2451082  21.9173789
  37.2137689  77.3293305  22.4764967  98.7542629   7.0487940  65.1601982
  99.6381187   7.0735699  65.5268192  98.4460068   6.1602139  65.3380632
  76.5438700  16.8677950  40.1637125  76.4486456  16.4860034  39.2911315
  77.4835682  16.8276870  40.3414488  87.9178810  24.5506263  35.8876896
  87.8328228  24.8031497  34.9683261  88.7340069  24.9606371  36.1741686
  98.8260841  14.1174221  26.6152096  98.1504345  13.4706104  26.4118266
  99.2818928  13.7566233  27.3756695   6.8123771  12.9314947  51.7196274
   6.4600135  12.1943545  52.2183180   6.0709240  13.5283077  51.6181850
  78.6802816  19.1586304  41.0979080  78.0005026  18.9862049  41.7493677
  79.1835213  19.8861051  41.4636469  90.7245255  13.2431531  58.3178473
  90.7132435  14.0493619  58.8337278  91.5449524  13.2846630  57.8265095
  59.7385454  10.2436113  16.5832746  58.9776421   9.7388327  16.8704319
  59.9966335   9.8379099  15.7556093  59.9709654   5.1290816  47.5398540
  59.3907356   5.4551256  48.2277966  59.3841314   4.9065003  46.8171406
   6.9123699  11.1390805  38.9780140   7.0094349  10.3438544  39.5018697
   7.2694255  10.9063542  38.1209350  83.3330536  33.1458139  61.3715267
  82.9308987  33.1167912  62.2396660  83.5685253  34.0652418  61.2472630
  99.3922997  19.6447384  35.6367779  98.5577011  19.6282053  35.1683784
  99.9377537  19.0066206  35.1768661  72.4969864  23.4613967  37.5522614
  72.3081160  23.0506516  38.3959723  71.9865513  24.2711043  37.5604606
  48.5589170  25.0915742  24.0946722  48.8530064  24.4985318  23.4032655
  49.0425539  24.8118520  24.8719001  87.0252800   0.6394342  36.6269898
  87.5396442   0.9707371  37.3631263  86.2382793   0.2731162  37.0303202
  46.5783978   7.8917056  32.5493574  46.0038090   7.7672279  31.7939878
  46.2989187   7.2238392  33.1755185  72.5465870  54.3108845  37.7410316
  72.3356342  54.3091249  38.6746955  72.7554655  55.2240849  37.5443959
  90.4633045  27.1081161  71.7894173  90.3634644  27.8971720  72.3220158
  90.9254265  27.4051309  71.0055494 107.8710175  28.0279279  25.4391646
 107.2655678  28.4821868  26.0250902 107.7179146  28.4250569  24.5817947
  59.9167299  27.9247808  23.5727620  60.8397388  28.0069518  23.3329010
  59.6135950  27.1513987  23.0971384  49.3176126  79.7733784  41.8620825
  49.5884751  79.2534042  41.1054516  48.9728307  80.5829454  41.4853048
  41.4616060  31.7771983  41.0856867  41.8642807  31.6101146  41.9378424
  42.0545578  32.3947144  40.6575346  86.8955517  74.6883488  27.7408290
  87.7552128  74.5472145  28.1374240  86.7213821  75.6203890  27.8719664
  89.8132896  35.7635117  17.6248372  88.8644791  35.7360792  17.7482867
  90.1685047  35.3321648  18.4020066  40.6689405  92.4980462   2.0965576
  40.2409743  93.3035863   2.3866996  40.0020742  92.0450152   1.5805283
  54.8388433  84.3925357  53.8237143  54.5059728  85.0087095  54.4762135
  54.4152974  83.5619903  54.0405893  75.6200695   3.4713361  11.0997880
  75.3204346   3.3393613  10.2003241  75.4643869   2.6305071  11.5299058
  51.9680738 106.2120629  47.6441383  51.1786889 105.8998624  48.0864429
  51.6487073 106.5990180  46.8289661  67.3974609  47.9800987  22.2256470
  67.5030804  47.9124880  21.2766981  66.8755436  48.7723684  22.3527050
  82.6863766  18.2767189  18.7707484  82.7978039  18.6745977  17.9073215
  82.7940845  17.3380089  18.6176038 102.5522137  22.2669959  40.9779406
 102.5510883  21.3544321  41.2668276 102.7924156  22.7652335  41.7591524
  90.6346607   6.0263026  34.7458267  90.5825806   5.1152563  35.0348139
  90.1832485   6.0360307  33.9018130  66.7283487  27.3541522  62.8371048
  66.1131191  27.9471898  63.2684183  66.7056465  26.5579462  63.3679295
  97.6522636  25.5847454  15.6985664  98.4446907  25.5200195  15.1655555
  97.6309013  24.7673416  16.1961877  23.3723258 103.7158514  56.6883373
  23.4662818 103.4066132  55.7873535  22.5731944 104.2426575  56.6786480
  91.2423706  15.5740964  60.2153301  91.9327736  16.2312841  60.1276588
  90.4660606  15.9909046  59.8413849  53.4416627  76.5327049  43.8227892
  52.6592111  76.8006468  44.3046665  53.8761281  75.9057761  44.4010925
 102.2898960   7.9463923  56.3585472 102.8464603   7.2374690  56.6808796
 101.4083099   7.7080601  56.6453266  77.8352785  15.5285025  22.2965574
  77.8680229  15.7178473  21.3588428  78.4315443  14.7887349  22.4124932
  32.0682239 104.2027212  21.2861848  32.9151582 104.3493353  20.8649564
  32.2795009 103.7278432  22.0899773  65.7488488  77.8620267  77.7867889
  66.5256166  77.3083258  77.8659630  66.0891771  78.7564469  77.8072596
  71.8619680  11.6456831  59.3661165  72.5976372  11.0577583  59.1947412
  71.1910534  11.3793576  58.7374878  81.7022800  26.2957001  33.4214640
  81.6450596  27.1282578  33.8902998  80.7937813  26.0073113  33.3337069
  48.6882114  18.9428759  84.0476418  49.2107582  19.7284818  83.8863945
  48.5978317  18.5344565  83.1866741 101.1755753  14.0114582  61.6337299
 101.3512135  13.9526343  62.5728416 101.9406700  14.4608295  61.2746668
  78.6690807  23.3091640  23.0992174  78.8109589  22.4324918  22.7420807
  78.2150984  23.1593776  23.9284921 104.7081757  33.9036012  67.8981209
 105.3324890  33.7786841  68.6128664 103.9944363  33.2968545  68.0947495
  95.2098370  28.5774350  55.6997681  94.4705200  28.2617068  56.2193394
  95.3737354  27.8782797  55.0668812  78.5135651  19.8462462  31.1379623
  78.4726715  20.8015180  31.0930705  79.3653679  19.6250224  30.7614923
  49.9872350  95.7083083   2.2805950  49.7230767  94.8090172   2.0863515
  49.7205304  96.2082220   1.5091114 103.4045601  15.2073860  38.9927149
 103.3500099  15.8034158  38.2457161 102.5291443  15.2271926  39.3793488
  65.7105827  27.8864408  42.8451967  65.4177141  26.9777679  42.9142761
  66.5666533  27.8305554  42.4206448  34.6976995  97.0851976   6.0189986
  35.2674626  97.4386287   5.3358543  35.0693130  97.4171496   6.8362743
  57.1992921  86.3026572  79.1105413  56.4753007  85.7645536  79.4307089
  56.7748498  87.0607520  78.7088203  59.7208929   4.7318482  81.7320538
  59.0017128   4.8817945  82.3456669  60.2848291   4.0974033  82.1744156
  75.0137997  23.4091854  41.4682722  74.3880081  23.0193710  40.8578110
  75.7560539  23.6639929  40.9202194  62.6175690  36.8476033  41.3409042
  62.8588676  36.7733932  40.4175949  61.9236088  37.5067353  41.3548708
  89.1825390  13.4472132  67.5325489  88.4587002  13.2266152  68.1187391
  89.8658657  12.8118479  67.7461243  57.4290657  31.6998053  46.8685246
  57.0647717  32.2047925  46.1415386  57.6631021  30.8565092  46.4808226
  91.4910698  10.7628787  41.0176802  92.2649670  10.2076364  40.9227180
  90.8803082  10.2363050  41.5333557  93.6655807  25.3105235  53.1191683
  93.9490795  25.7486296  52.3167133  93.2035065  25.9887171  53.6118889
  77.7783343  71.4935380  89.0693489  78.5122153  71.2712484  89.6422646
  76.9999000  71.3134842  89.5964682  97.4727821  43.2825041  27.4514246
  97.7785778  42.7321053  26.7304707  96.7732048  42.7736425  27.8611684
  83.3185387  18.8211846  37.1233344  82.5728512  19.4167447  37.1974421
  83.9450169  19.1397715  37.7731490  54.8530053 104.0609634  44.3523312
  54.3102216 104.0185273  45.1396179  55.5440950 104.6860141  44.5712805
  67.3459721   3.5168484  64.3943357  66.7947102   2.7343252  64.3925762
  67.9119968   3.4093595  65.1587248  88.3654976  11.9448912  28.7056041
  88.6062336  11.0719168  29.0157533  88.8107967  12.5433981  29.3053794
  70.7106113  27.4436045  33.7928724  69.8967123  27.3779249  33.2933855
  70.5810499  26.8592119  34.5398235  77.6608038  34.5298696  33.1771326
  76.8834877  35.0642776  33.3396959  77.8631163  34.1368723  34.0261650
  56.1068916  18.6387813  57.5318336  56.9486046  18.9594257  57.8557777
  56.1323881  17.6953661  57.6916742  59.7142172   6.9116533  70.0116062
  59.6879053   7.8415728  69.7862387  60.5672836   6.7902809  70.4284763
  69.9025726  10.1659560  31.7946029  70.1600885  10.4906344  32.6574469
  70.7104349   9.8150623  31.4198256  79.8642302   7.8330612  53.4306288
  79.0655565   7.3194194  53.5511255  79.7198200   8.3125848  52.6148891
  94.6593854  58.3705463  80.6488014  94.5503709  57.4196854  80.6633532
  93.7668511  58.7145304  80.6847155  96.1657810  26.1499929  39.1651034
  96.9060135  26.6586399  38.8340974  95.5842209  26.0547543  38.4108210
  55.0437307  93.7082673  65.8641672  55.9147309  93.3584083  66.0517311
  54.7954702  94.1737068  66.6628933  24.0215730 105.8029339  27.9507875
  23.6282300 106.5432785  27.4888325  24.5568751 106.2046683  28.6351061
  29.8708056  62.4544125  84.8919279  30.7504843  62.2742694  85.2235222
  29.5922087  63.2382368  85.3654582 103.1317902  35.5903006  53.9922333
 103.3357906  36.5202427  54.0913630 103.9050293  35.2194691  53.5670185
 101.1964893  38.3865452  77.1786547 100.4041195  38.1529880  76.6951036
 101.7935944  37.6536822  77.0282984  48.1777238 105.6146149  26.6894841
  48.5479211 104.8587300  27.1453595  48.5024785 105.5359930  25.7924986
  55.4649114 105.4364901  17.0787954  54.6858167 105.8015432  16.6592979
  55.1228856 104.9023715  17.7957141  64.7943115  14.5318198  52.1395445
  64.9423456  15.4556048  51.9372082  65.1113462  14.0636683  51.3671732
  27.1147155 106.5502159  56.6973114  27.0981740 106.3760893  55.7562256
  26.1922597 106.5917047  56.9494629 101.2431240  33.3034444  34.4403982
 100.4583931  33.0847859  34.9430132 101.5154171  32.4737167  34.0484309
  87.7700806  45.3990936  79.9114513  87.5803375  44.7131109  79.2714119
  88.0723858  44.9262190  80.6868458  83.9835358  28.1161404  25.8229971
  83.6774349  28.8199329  25.2509761  84.4107437  28.5677648  26.5508437
  98.1403160  13.0854487  46.2407589  98.8604164  13.6678052  45.9988022
  98.0959892  12.4498105  45.5264521  25.7919835 105.7008988  65.7233620
  26.1350249 105.3646207  64.8954296  24.8485135 105.7743847  65.5795145
  69.0251969  99.8072041  29.7871161  68.8252687  99.8584033  30.7218003
  68.6893033  98.9526070  29.5167971  78.7699413  24.8457837  46.0479736
  78.8659239  25.7535553  45.7599258  77.9066992  24.8153853  46.4604330
  78.0253839  38.0863237   3.0946049  77.7489996  38.9894676   3.2500923
  78.0627918  37.6937652   3.9668030  85.2563095  38.5817599  20.6804609
  86.0014439  38.4923029  20.0863242  85.6418419  38.8767958  21.5054178
  96.8585491  29.6701670  71.1009979  97.1074390  30.4279780  70.5718374
  96.6341972  28.9945292  70.4611444  90.1143360   0.1450149  54.7926569
  90.1551533   0.8565917  55.4315805  90.9601879   0.1756715  54.3456459
 109.9985886  21.6353464  32.5714707 109.4177628  21.7794037  31.8243909
 110.2475548  20.7133436  32.5069928  74.1733599  17.9427814  62.5439978
  74.6254683  17.1597397  62.2298622  74.6004391  18.1485450  63.3755589
  65.1926136  23.5137606  57.9354668  64.7162867  23.1338358  58.6737061
  64.6353579  24.2315960  57.6347828   4.4577552  27.5327229  80.2241135
   4.8609974  27.3492193  79.3756104   3.5170986  27.4581170  80.0634098
   7.5734283   2.3896098  38.4707689   8.1490852   1.6260284  38.4284353
   8.1696369   3.1359243  38.5322452 109.6266174  16.1658299  70.4740620
 108.6820507  16.0135806  70.5031157 110.0079060  15.3814459  70.8685207
  83.2943821  33.9803982  24.7010255  82.5218105  34.0397906  25.2630186
  83.9067173  34.6183658  25.0674486  98.0735874  25.4294682  41.0562325
  97.5012398  25.4897952  40.2913761  98.3522129  26.3307190  41.2185621
  90.8762550  32.0957017  70.0548983  90.6096172  32.8440189  69.5208979
  91.7228508  31.8331337  69.6935463  56.2123775  32.3965359  27.8476644
  56.6081285  33.2655787  27.9138207  56.2475252  32.1877837  26.9141674
   3.0201580  23.7161922  44.3552971   2.2040798  23.2197571  44.2936134
   3.6857273  23.1282806  43.9980793  95.9380627  13.0861461   1.2755162
  95.1355457  12.6960087   0.9291203  95.6581783  13.9257348   1.6401891
  67.3671675  14.5734632  68.8658810  67.9774189  14.0233707  69.3570280
  66.5436745  14.0856206  68.8758945  10.9555866  34.8883677  37.2268629
  10.0709583  34.5357656  37.3235035  11.3423397  34.8071885  38.0986762
  25.9478904   6.2664896  49.8113012  25.1282837   5.7766461  49.8785639
  25.8264114   6.8331629  49.0494871  65.7297802   6.9702142  46.4292526
  65.7887983   6.0204303  46.5324926  66.3223410   7.3207051  47.0942783
  75.6412888  16.1762345  47.7621937  75.5113506  16.6161907  48.6023045
  74.9911547  16.5717936  47.1815968  77.9176187 105.8210768  26.4419317
  77.5638341 106.3733101  25.7447195  77.5143575 104.9650884  26.2973928
 105.6424141   7.6894504  60.9218407 106.2675190   6.9665289  60.8684015
 105.8534527   8.2445633  60.1711464   5.1923369  34.8755222  72.2306311
   5.1754378  35.6249719  72.8258384   5.3392123  34.1204756  72.8003347
 112.3427582  20.1169181  15.7615626 112.8652859  20.8605456  15.4612029
 112.9738140  19.5378220  16.1889470  89.6084690  40.9251547  62.5387049
  89.0739918  41.5195847  63.0652142  89.4285393  41.1793852  61.6335964
  26.8581580  90.7675899  57.2933817  26.8857383  90.9178770  56.3484573
  25.9507226  90.5194235  57.4700499  26.7260217 101.2317551  40.5187225
  26.2083482 100.9069300  41.2554264  27.6179790 101.2918944  40.8608103
 112.8411102  32.1247244  25.7373190 113.1321526  32.9649878  25.3830838
 111.8854523  32.1703935  25.7076740   2.3429062   8.5753751  53.0049562
   2.5655796   8.0344051  52.2473288   1.8075134   9.2826062  52.6452112
  87.5169659  21.7382073  89.9741554  87.3697376  21.2242103  89.1802025
  88.3917904  22.1096158  89.8602486  85.7745266   7.4497038   5.0457287
  86.5979767   7.0031869   5.2426434  85.1039696   6.9127119   5.4679036
  81.5669060  14.2514467  27.8926730  80.7035351  14.2119133  27.4812460
  81.9788551  13.4178150  27.6655459  27.3998784  94.4604564  18.3401346
  27.6628255  95.2885581  17.9384661  27.7247619  93.7893153  17.7399254
  39.0520047 106.0550848  60.4485321  39.6242427 105.8702389  59.7038126
  38.1935882 105.7296035  60.1775694   3.8057472  27.8208184  33.7688494
   4.6505405  28.1885767  34.0282989   3.3520652  27.6563954  34.5955110
 112.0628262  39.4359207  76.5874481 112.4812126  39.8557305  75.8358192
 112.0188046  40.1234531  77.2519732  83.6623573  49.1712952  14.1041780
  84.5347023  49.0954065  13.7175441  83.5479164  48.3594990  14.5982695
  96.9857597  26.7845821  54.1736507  96.8128777  25.8659196  53.9677334
  97.0900726  27.2057581  53.3204460 108.0737782  47.6355982  78.6843061
 107.2345161  48.0201340  78.4313250 108.6054039  48.3818674  78.9612341
  46.2944173 105.8368856  56.6709805  45.5788850 106.4721696  56.6453505
  46.3050603 105.4526224  55.7943630   1.5904571  26.9830966  42.7645350
   2.1722652  26.3956022  43.2467985   2.1799900  27.5921655  42.3198891
  69.7949266   4.9638528  51.9986534  69.2248678   4.6269456  52.6898575
  70.4397154   4.2700160  51.8605566 106.6289806   8.2451117  33.6981368
 106.9850540   7.8789026  32.8886080 105.6890869   8.0713892  33.6465144
  58.7902975  55.2869225  16.2636030  58.8039637  55.8642435  15.5002260
  57.8630018  55.0932407  16.4008558 102.9971218  21.7067456  50.5825472
 103.5842037  22.1193528  51.2160492 102.1302891  21.7683554  50.9838438
 110.2217579  10.2289653  11.1644948 110.7388592   9.4426793  11.3394189
 110.0020313  10.5689967  12.0318627  30.8540916 100.4527492  83.3699036
  31.4941024 101.0876388  83.6916637  30.4960393 100.0513208  84.1616631
  80.5656815  11.5023708  50.5067492  80.5457497  11.9676137  49.6704578
  80.4390907  12.1862805  51.1643744  35.1616050  25.7123399  41.0774565
  35.2121307  24.8735213  40.6191301  35.9297039  25.7198524  41.6485929
 111.6334438  27.9931521  22.4287820 111.9709492  28.3050823  21.5891290
 112.1940327  27.2497892  22.6510048  77.5498723 101.2826777  77.4092197
  78.1546449 101.0867680  78.1248283  78.0718850 101.1652345  76.6155291
  90.5366993  20.0843740  41.5340567  91.2462902  20.3631878  42.1128273
  90.3563404  20.8508706  40.9898233  56.3078403  25.0245500  75.6067657
  56.8445921  24.5307755  74.9868298  55.8196545  24.3555713  76.0867357
 100.6607819  58.4035015  33.5260892 101.5914917  58.4110546  33.7495923
 100.2307224  58.8119459  34.2773914   9.4715072  39.9134922  41.7606401
   9.9353172  39.6463943  40.9670591   9.0522148  40.7413197  41.5258551
  97.9533863  20.8775830   4.1758332  97.4002934  21.3968134   3.5921219
  97.4518967  20.0773573   4.3319610 103.1832409   6.0628027  60.7610798
 103.8627911   6.7294532  60.8612061 102.5156212   6.3029349  61.4036083
  98.3259010  53.0788183  21.1900616  98.9307213  52.4285078  20.8329725
  97.4669170  52.8124094  20.8623362  86.8801880  45.5629158   9.6006757
  85.9929943  45.4816723   9.9506921  87.4491692  45.4547834  10.3627813
  89.5642948  18.2930470  47.5564003  89.6226025  18.5092127  48.4870481
  89.0512466  17.4853945  47.5297976  88.8860416  11.5652096  15.9940696
  88.3530807  11.3344252  16.7549407  89.0215683  12.5093830  16.0740697
  52.5257254  13.3736575  25.7972527  53.4251785  13.5925913  26.0407281
  52.5478745  13.2962024  24.8434496  66.8748044  93.8921476  42.6989317
  66.8435334  94.6084858  43.3330584  67.0078420  94.3246103  41.8554211
   1.8418933  20.9817743  23.1162405   2.3370697  21.0445237  22.2994852
   1.2078716  21.6972280  23.0675101  86.1200619  21.8741941  32.6515388
  86.0445309  20.9947872  32.2811699  86.7390537  21.7769718  33.3751583
  52.8476857  81.4172388  32.5456762  51.9433831  81.6750551  32.3667932
  53.0169915  81.7367817  33.4319377  59.2094374  18.9347208  10.1936948
  59.1797686  18.8145804   9.2445284  59.7534180  19.7121584  10.3198254
  28.3766414  13.8747811  66.9543505  27.8896858  14.6779478  66.7698860
  27.7051403  13.1948686  67.0094919 112.8760815  44.0403032  54.4346857
 112.4056149  43.8320971  55.2418661 113.2636833  43.2086372  54.1620541
  98.2853794   7.7529764  43.6944866  98.3179665   8.3839512  44.4135427
  98.6612225   6.9525677  44.0609837  63.9352369  88.2738543  15.8633542
  63.2931470  87.6165856  15.5951214  63.5134458  88.7401951  16.5850508
  37.8249358 105.9986444  18.3805478  38.0739259 105.7132913  17.5014532
  38.6572980 106.1268978  18.8354659 102.0631409  35.8100247  46.3488007
 102.8201389  36.2061882  46.7803526 101.4684963  36.5426898  46.1880445
  94.6248913  27.9246974  63.5700893  95.4253960  27.9214525  64.0948820
  94.2881298  28.8169098  63.6524391  63.0758237  97.3695595  43.7306547
  62.4380445  97.9116941  43.2663727  63.9002084  97.8497142  43.6526775
  95.5775833   6.5215540  37.9466009  96.1302185   5.7628983  37.7587962
  96.1717415   7.2700483  37.8920650  70.2842283   7.9676431  63.4824705
  69.4131088   8.0607837  63.8680935  70.5058050   7.0453882  63.6112404
  89.0384579  20.6864929  44.4721317  88.7467575  21.5448284  44.1648769
  88.5972023  20.5706668  45.3136253  93.8377380  55.6312370  20.3276801
  94.0261269  56.3411522  19.7138703  92.9751492  55.8447981  20.6834388
 108.0416584  12.2908545  41.5666676 108.7221432  12.9118407  41.3067627
 107.6036358  12.0589137  40.7477856  94.0025330  42.3781681  24.8697019
  93.3001614  42.2985792  25.5151224  94.7160816  42.8052807  25.3436756
  97.6641511 104.9358470  50.6942272  98.3351945 104.5252546  51.2395239
  97.7318334 105.8696041  50.8935976  19.7123574  91.5101290  37.0047021
  20.2988814  91.4135624  37.7549696  20.1542710  92.1394110  36.4346600
 102.3922539  20.4611540  45.5777407 101.6314030  20.1013160  45.1218367
 102.3437405  20.0865483  46.4572573  78.1934547  41.7741346  30.8693218
  78.9116192  42.3817492  30.6924629  78.1109047  41.7719698  31.8229532
  71.2829304  19.8379815   9.4419956  71.5697336  19.0366256   9.0040374
  72.0244646  20.0882697   9.9931031  98.9357376  25.4567385  23.4537053
  99.0296459  25.0929308  22.5733304  99.7846127  25.3026819  23.8683248
  72.1199465  18.8554931  29.3961978  71.5095568  19.3750668  29.9193573
  72.7830553  19.4829750  29.1084671  96.9611835   5.7832944  22.8190589
  96.9567204   6.6999561  22.5434804  97.3053741   5.3075999  22.0630956
 100.0971222  14.7925198  75.5368662 100.5001354  15.0575984  74.7101021
 100.8022404  14.8626852  76.1803818 112.7642345  27.5890613  38.7466335
 112.1868801  27.1150851  38.1480956 112.2306728  27.7365804  39.5275211
  86.9908714  27.1898389  17.3992741  86.0408688  27.3025060  17.3672926
  87.1985531  27.1713305  18.3334899 100.1058388   5.7656133  53.2216024
  99.5142174   6.1947417  52.6034880 100.9248066   6.2557489  53.1489134
  97.5010586   9.1925591  47.7768564  97.6865768  10.0444889  48.1718636
  96.5467262   9.1626811  47.7091122  84.9012280  10.5202198  32.3203492
  84.9661446  10.6118894  31.3697648  85.5005264  11.1816061  32.6662374
  93.8060951  15.0800788  79.7418451  94.5300865  15.7048297  79.6999407
  93.7209988  14.7516930  78.8467741  97.1152878  40.8498716  24.7075582
  97.9277802  40.8236170  24.2021823  96.4579582  41.1665297  24.0879726
  77.6936292  99.8925645  47.3671103  78.0563497 100.4245461  48.0753899
  77.8324842 100.4169465  46.5784597  70.4916954  34.8028827  21.0772157
  70.0010681  34.7762728  21.8986821  70.0387335  34.1812468  20.5074573
 100.2418804  30.6384540  69.7706175 100.3730774  30.9243488  68.8665771
 100.5455017  29.7307467  69.7812223  88.1144905  16.6080892  39.2480040
  88.7067223  16.7610514  39.9842763  87.3990822  16.0918021  39.6193242
  68.2466507   2.9632336  10.9851325  68.0528402   3.6038125  11.6694772
  67.7651691   3.2773075  10.2197778  85.7080364   3.0657002  41.5614653
  86.2991047   2.8910723  42.2938395  85.4908371   2.1993825  41.2171507
  35.1967858 104.6873786  58.2911253  34.4577645 105.2058790  58.6092997
  34.9556493 104.4511726  57.3954153  19.9044468  29.5896053  22.6474404
  19.2175914  30.0465035  23.1329441  19.5819332  28.6923027  22.5633979
  94.5387363  31.9939947  39.8931766  93.7924004  32.4821830  39.5454860
  95.2564144  32.6273251  39.9012852  91.2067413  18.2384169  39.6527219
  91.0449028  19.0653348  40.1068687  90.6400871  17.6069164  40.0958252
  27.0209359 102.5166745  37.7091312  26.6487025 103.3982748  37.7304697
  26.9987153 102.2251809  38.6205959  66.4852858  25.3188252  64.7004795
  66.2302208  24.3972278  64.6576643  65.9018755  25.6985307  65.3575087
  66.0300016  28.7633872  68.8111639  65.6707764  28.6874771  69.6951485
  66.8656492  29.2147946  68.9301586 107.6947212   8.5621250  54.9686623
 108.4855556   8.7248069  54.4545221 107.4321651   9.4267976  55.2843189
  21.5338756  25.8420920  21.3110423  22.4825050  25.8473086  21.4387536
  21.3038398  24.9142146  21.2624526  72.5206900  21.5867949  21.9404078
  73.1449175  21.6754246  22.6606250  72.5453281  22.4344420  21.4964223
  21.7563678  25.4998016  33.4005809  21.6748287  26.0756373  32.6403213
  21.3893177  24.6651340  33.1093121  51.0572385  98.9428360  14.4630897
  51.8324136  99.3740088  14.8228407  51.0728597  99.1606290  13.5311270
 110.5036831  14.6616983  14.7481978 110.4574585  13.8538659  15.2595699
 111.3055515  15.0896358  15.0483871   9.8718883  18.7144852  50.6662846
  10.6916763  18.3307409  50.3549528  10.1240779  19.2281234  51.4336252
  94.0426159  15.4039860  57.3583174  94.1258430  15.8674335  58.1916952
  94.1673088  16.0816598  56.6939068   6.7024185  44.2638350  62.5300217
   6.8507053  43.3186722  62.5602055   7.4341442  44.6368933  63.0215931
  70.3823899 104.9252242  29.6920347  69.8905896 104.3460496  29.1098642
  70.4351091 104.4454328  30.5186248 105.5087138  43.3173342  14.0841782
 106.1307956  44.0428443  14.0305149 105.9116031  42.6178319  13.5697758
  64.5577334  76.2515658  91.2182200  64.7661684  76.1328810  90.2915576
  63.6309527  76.4908188  91.2265264  99.5055771  62.4560976  21.6901946
  98.6614418  62.8665066  21.8778777  99.4946671  61.6436434  22.1961880
  91.6274783  53.2350897  71.7241514  92.0124861  53.5979566  72.5218535
  92.1813437  52.4840516  71.5110696  53.7748384  86.4807678  74.0728712
  54.2925405  86.1255861  73.3503342  54.3082952  86.3203145  74.8512745
  69.3632555  26.2715888  47.5568485  69.3246269  27.2057486  47.3517036
  69.1594744  26.2228513  48.4908342   1.1228611  36.1383390  44.5141315
   0.7241203  36.6280985  45.2334166   2.0211460  35.9774232  44.8029375
  79.9994611 102.5822920  60.1412868  80.0801324 103.4281418  59.7005367
  80.8379983 102.1487156  59.9828434  77.1710157  11.3451874  30.4865909
  76.5392399  10.7721961  30.9210682  77.7206421  11.6774535  31.1963367
   1.9861271  29.3421340  21.9807124   1.0795166  29.6473169  22.0148516
   1.9650413  28.4814835  22.3991203  95.9474850  54.5987368   6.6259074
  96.5853977  55.1188135   7.1145916  95.9552479  53.7438536   7.0564294
   7.5469973  93.8597519  12.6226914   6.5910723  93.8460715  12.6699936
   7.7430727  93.7157376  11.6969216  12.9016112  75.6353968  76.3824165
  12.1746443  75.0348132  76.2179351  13.1781004  75.9209412  75.5116392
  54.6331453  95.5103672  60.9665155  55.4570626  95.8902217  60.6613731
  54.8983049  94.7693801  61.5113688  75.1761388   1.1010330  88.5762602
  74.5389032   0.4258506  88.3432323  75.4896974   1.4347570  87.7357012
  75.6216621  28.8447475  38.0752277  76.2816954  29.4115734  37.6761031
  75.8555508  27.9632545  37.7845407 102.3215485  28.3813715  36.9722700
 102.0360947  27.5811815  36.5313101 103.2771587  28.3531189  36.9248414
  56.6345835  40.0762129  78.6968899  57.4642372  40.3301525  78.2926369
  56.2402153  39.4674873  78.0722618  91.1610126  16.5704358  57.0596790
  92.0516682  16.2200594  57.0454264  91.2666416  17.5012589  56.8630981
   7.0731021   3.7901935  76.2269592   7.3157169   3.4307617  77.0802879
   7.0180942   4.7347718  76.3717985   5.0390960  41.4490795  85.5696583
   5.8732940  41.0418415  85.8031178   4.6505405  40.8504438  84.9317837
  35.9086036 106.7650268  68.4334278  36.6335773 107.0554798  68.9868593
  35.8328199 105.8274110  68.6105299 106.4668751  20.9535074  72.0428228
 105.9849453  21.1726165  72.8402948 107.2873020  21.4409494  72.1172190
  61.1274910   7.5143075  38.4752035  61.1553240   8.3436394  37.9980612
  61.6337585   6.9091034  37.9333019  71.3600636  23.7933183  54.4838142
  70.7646132  23.6147189  55.2116680  71.3244772  24.7433972  54.3728447
 103.9312077  12.4794292  54.0446091 103.3645535  11.8738377  54.5225191
 103.4576225  13.3111656  54.0573215  70.2753353  13.8245618  60.1477289
  70.7883644  13.0238175  60.0388908  70.6223440  14.2248309  60.9449768
  84.3407249  14.5114660  61.2077141  85.0041866  14.8166120  61.8265343
  84.0962124  15.2939284  60.7135534  91.6342545  17.2290313  46.2160921
  92.3118305  17.5523126  46.8098974  90.8103466  17.4837577  46.6314650
  94.4470978  18.6335635  52.9876089  95.3220463  18.3790827  52.6944447
  94.4990158  19.5826352  53.1007433  96.3319969  41.0755873   8.5688329
  95.4176903  41.2927151   8.7508506  96.5657520  41.6288519   7.8235221
  30.9431886 103.7710289  50.5731201  31.5853547 104.4621590  50.4112864
  30.3721856 103.7900308  49.8051167  90.5192089  46.5207624  59.0409899
  89.9536896  45.8416510  59.4087124  91.0621548  46.8044710  59.7764826
   5.6806327  22.2213435  30.1854801   6.3669921  21.5594292  30.1017022
   5.0945617  22.0533919  29.4475484  12.0951034  12.4739492  32.9812503
  12.7939083  12.7436113  32.3852849  11.3593341  12.2614408  32.4070430
  78.9047575  45.1380301   7.2689015  79.2833757  46.0010147   7.1011579
  78.4999466  45.2178574   8.1326061 104.9722811  69.9276620  75.3725338
 105.1528546  69.0421527  75.6879652 104.0173670  69.9756222  75.3270150
   3.6581947  34.8975992  28.1511879   3.1154682  34.1106200  28.1995916
   4.5536090  34.5669866  28.0793619 102.1939564  20.5281401   6.1626047
 101.6121292  19.9559498   5.6622988 101.7315960  21.3653827   6.2010109
   0.6076385  38.0058408  11.1024177   1.3750507  37.4421787  11.0044956
   0.0904323  37.8455424  10.3130889  89.1685677  44.7979546  82.2969913
  89.2915344  44.0308905  82.8562164  88.3976746  45.2361012  82.6575279
  80.7924175  28.2997918  42.8802490  81.1686897  27.6334190  42.3052740
  80.4891014  28.9857340  42.2855043   3.8354924  84.8571641   2.7249825
   3.9316561  84.7146733   3.6666119   3.4440997  84.0468032   2.3988545
  94.2373371  15.5884194  18.7793219  93.7552071  16.2364137  18.2656193
  94.2845821  14.8194480  18.2112718  69.6887540  96.5961755  37.7328610
  69.0979909  96.6075123  36.9797897  69.9174260  95.6733621  37.8440142
  54.1071080  85.6687856  51.2905359  53.8350629  86.5516878  51.5409565
  54.1594648  85.1905418  52.1180439  10.1415537  80.2121680  88.1197369
  10.3036879  79.3981402  88.5964996  11.0122393  80.5192655  87.8671024
  86.3410091  28.9109802  45.1250172  85.6390095  29.5578337  45.1958418
  86.8292236  29.1718864  44.3441153  17.3062755  64.0764046  44.3719816
  17.4793007  64.1175365  43.4314489  16.5415050  64.6377087  44.4995975
  85.3196812  20.4199123  54.9997091  85.2944469  19.4739187  54.8558712
  85.7494831  20.5216765  55.8489132 100.5767822  22.0259428  51.6359997
 100.0446320  21.3451099  52.0477152 100.4084873  22.8101444  52.1584320
  97.9269314  19.5594299  49.2681599  97.3443031  20.0806570  49.8205233
  97.6384354  18.6564434  49.4008970  23.6342765   1.7705421  15.0383317
  24.0996791   2.0410240  15.8298361  23.3191921   2.5887695  14.6543360
 106.2176323  54.0101385  51.6174316 105.6332874  53.8928986  50.8684158
 106.4399052  53.1197309  51.8894720  83.8589811 105.4919625  60.8917809
  84.0545606 105.8323537  60.0187874  84.4844960 104.7781811  61.0162115
  84.2367172  35.2849388  54.2498016  83.5544014  34.7750854  54.6865225
  83.7720203  35.7762146  53.5723591  70.4031801  53.8903999   0.3394933
  70.7584190  54.7519159   0.5581925  70.3874826  53.8736820  -0.6174318
 105.1739597  30.6280470  40.9849548 105.7874870  31.3479447  40.8381176
 104.7364521  30.5104566  40.1417542  30.0005674  98.1746054   8.8645673
  30.6124257  98.8999147   8.9902133  30.2035379  97.5644661   9.5736265
  11.3106014  54.8039246   4.1196322  10.9075786  54.4986868   3.3068359
  12.0177604  55.3822756   3.8338625  95.8003521  28.5794139  79.7776794
  95.5799484  29.4974184  79.6198082  96.4069748  28.3540320  79.0723848
  82.3981190   9.7089332  32.9424357  81.9067001  10.2297080  32.3071909
  83.3162975   9.8698372  32.7249599  65.2814484  34.8769760   2.6623535
  66.0942650  34.3896055   2.5280836  65.3680038  35.2500534   3.5395956
  23.4465598 104.4163639  50.3684473  22.7212047 105.0307397  50.4808474
  23.3991717 103.8467765  51.1362696  73.5121869  89.3267882  70.7851696
  74.3556928  89.4345952  70.3457308  73.4087705  88.3795345  70.8759785
  97.0482254  15.8699369  27.2137737  96.7943668  16.2102985  26.3559031
  97.5931072  15.1078498  27.0174193 109.5761490  22.4471211  35.3679657
 109.8945713  21.9633126  34.6058869 108.9065742  23.0339456  35.0164795
  59.7825479 106.2252707  30.8891010  59.4977903 106.4794977  30.0113130
  59.7748136 107.0414242  31.3891649  99.9364948  49.8421001  51.6504431
 100.2083397  49.4263887  50.8322001 100.0901890  49.1757679  52.3202276
  91.2293530  43.5269833  61.3264418  90.3590775  43.9146423  61.4190769
  91.4038086  43.5520554  60.3856087  20.7974769  60.1041126  67.8296661
  21.3813354  60.5717182  68.4268904  21.3661243  59.8155308  67.1158123
  88.3588123  60.4339314  55.8623314  88.0799294  60.4558468  56.7777443
  88.3783436  61.3530779  55.5958319  61.3529824 105.9796800  38.5257363
  60.4688691 106.3298782  38.6349916  61.7213296 106.4817527  37.7987719
 106.2863350  64.5445967  23.5217929 106.0758591  64.4131708  24.4462705
 107.0684814  65.0963211  23.5303140  40.8594944  65.2773905  62.1438360
  41.0810520  64.9820089  63.0269527  41.3870956  64.7249222  61.5670776
   8.2255794  18.2153904  20.1894069   7.5867607  17.9135001  19.5436478
   9.0755893  18.0288434  19.7907662 107.1325970  43.2579231  44.4498777
 107.0827579  43.9796066  45.0767088 106.6501808  43.5713959  43.6848688
  89.2304802  33.2140088  38.8522887  88.7266827  33.7058353  38.2038140
  88.7110996  33.2730842  39.6541476   4.8085739  36.4004302  42.5179720
   5.5564167  35.8868957  42.2126245   5.1889659  37.2311711  42.8032875
  24.3941928  33.5603714  75.6230736  25.1604416  33.2135153  76.0799932
  24.7575618  34.0709639  74.8995495 111.9617367  22.0477176  57.1580410
 112.2624493  21.2760949  56.6780376 111.0301304  21.8878698  57.3089933
  26.9591571  39.8325539  82.0143318  27.7762367  39.5029736  82.3884869
  26.8777038  39.3757606  81.1771107   4.8109390  54.2579889  37.2478747
   5.1416065  54.3954039  36.3601732   4.9721290  53.3307838  37.4226499
  24.9651672  47.9187536  34.1482401  24.0439369  48.1118250  34.3222833
  25.0528289  46.9835424  34.3324423  90.0795602  88.5599793  52.3751926
  90.7675981  88.5662175  51.7097664  90.4108380  87.9752422  53.0567837
 108.8992310  45.9901714  58.7215567 108.6412430  45.6935167  59.5942926
 108.9831543  46.9398928  58.8064957 100.6864262  52.3763704  76.1516571
 100.0225544  52.1065378  76.7862415 101.5189743  52.1416903  76.5615654
  19.9210407  46.3423872  55.6991386  19.8582603  46.4255381  56.6506529
  19.9362709  45.3983498  55.5416965 106.5767002  35.7250881  66.3333511
 106.2360668  36.6098619  66.2015390 106.2587643  35.4727125  67.2002172
   3.0279876  62.8772593  38.0399036   2.8435089  63.4841108  37.3230124
   3.9804889  62.8981352  38.1322670  12.9210712  20.7384205  80.9056187
  12.2968341  21.1339378  80.2972317  12.5735618  19.8616207  81.0689926
  95.1557255  61.3447571  55.3140259  95.9897614  61.6866398  55.6360865
  94.4938278  61.7927456  55.8407450  75.2200460 106.7206725  60.0637722
  75.7499551 106.1709788  60.6410646  74.3258237 106.6175515  60.3892803
 105.3834343  33.3597088  43.8648510 104.9783993  33.8869953  43.1762648
 105.9210491  33.9803386  44.3568134 102.7161121  25.2042961  57.1129847
 101.8399429  25.0990987  56.7421770 102.9235172  26.1290765  56.9788265
 108.6035919  24.5848298  34.1377068 108.9004040  24.9514222  33.3047938
 107.8055000  25.0718451  34.3429041  11.1382820  74.2956114  48.9823914
  11.1074974  74.3589449  48.0277872  10.5358078  74.9741936  49.2870045
   1.1025143 102.7637020  46.8290091   1.4408780 101.9374547  47.1740675
   0.7331849 102.5338513  45.9763718  99.0458298  17.7702522  63.5045862
  99.3883133  18.6327755  63.7390852  98.8267422  17.3635232  64.3429184
  20.7123806  24.4021225  26.1854863  20.6111862  25.3111434  25.9032249
  21.6500236  24.2284799  26.1023235 103.8271999  16.8934917  26.3238120
 103.3407593  16.4459145  25.6315112 103.3845520  17.7366233  26.4209032
  96.4106750  75.4946280  43.5641861  96.0356140  76.2626123  43.1331825
  97.3372078  75.5141354  43.3246088 103.3353329  13.1828117  41.1016560
 102.9005814  13.4108627  41.9233704 103.5133266  14.0250385  40.6830788
  63.5784101 104.4424987  68.6911106  63.9309072 104.5057881  67.8034306
  64.2104959 104.9136630  69.2339706  26.1748554  25.2123332  47.8675890
  25.4759075  25.8369350  47.6737118  26.9654609  25.6204128  47.5145578
   3.9140846  41.7993259  20.6339073   4.5983650  42.1819687  21.1830640
   3.6747982  40.9871960  21.0804701  12.7853538  34.0398264  17.8650165
  11.9225742  34.2088580  17.4864900  12.8361751  34.6288109  18.6178410
 108.9141464  20.7147264  50.2815390 108.8384533  20.9603977  49.3595028
 108.5223484  21.4470005  50.7574606 105.1602650  71.0089731  40.6486034
 105.9956646  70.6149006  40.3975058 104.5134258  70.5729532  40.0938845
  14.5538951  30.1978040  81.5510178  14.3524410  31.1268449  81.6629696
  15.1560928  29.9953365  82.2669601   4.0938427  30.9434843  55.9956551
   4.1166832  30.0009537  55.8302927   4.1769458  31.3408232  55.1287937
 103.0839825   2.5136611  62.8192759 102.9768944   3.2476681  63.4242535
 103.7233353   1.9430780  63.2457733  10.9207870   5.5310965  54.3252993
  10.4206039   6.3266361  54.1431904  11.8124725   5.7397997  54.0467978
   0.4043247  53.8742161  58.2548237   1.2944461  53.5334253  58.3430338
   0.4969360  54.6432734  57.6924944 104.5267487  44.2799854  30.1334500
 105.1060295  44.0998316  30.8738589 103.6442280  44.1712379  30.4878139
  79.7154093  18.5850501  33.4922242  78.7725306  18.7181783  33.5896611
  79.9394417  19.0427208  32.6819277   7.1158077  23.8712001  42.1196699
   7.4325897  24.7253990  42.4133158   6.9796135  23.9769840  41.1781359
   0.6364585  35.4326868  31.1098695   0.5866481  34.6360993  30.5814767
   0.5171348  35.1306725  32.0103049  11.8476535  10.1302922  60.6663322
  11.7987491   9.7829890  59.7757006  12.1262027   9.3853325  61.1989450
   5.6298973  35.0559855  38.7538600   5.2375557  34.8453903  37.9065418
   5.7757427  36.0014725  38.7219071  87.8757000  31.3113427  58.8332939
  87.3337078  32.0427084  59.1292334  88.6422062  31.3341022  59.4061661
  92.1374607   5.4051602  47.9911661  92.1793079   5.2819908  48.9394855
  91.8258476   4.5652243  47.6540709  15.8210804  16.1064649  37.3183036
  15.9994938  15.3241730  36.7963624  15.8560611  16.8271565  36.6893268
 105.6445980  22.6349473  32.8747272 106.3489246  22.5829339  32.2286129
 105.5274105  23.5727763  33.0263090 108.4234047  54.1020918  34.8043132
 108.9233017  54.0031147  33.9940429 108.7322807  53.3902550  35.3647709
   1.7351295  61.1976099  39.9303389   1.9273998  61.8554544  39.2621303
   2.3309089  60.4748011  39.7332692  81.2635517  34.3334389  51.1616611
  80.4998875  34.8470855  50.8985567  81.9096661  34.9860168  51.4316797
 110.7726097   3.1003201  61.5489531 111.4326477   3.4325927  62.1573734
 110.0460720   3.7191823  61.6223383  93.9473152  41.1445951  43.7197065
  93.6409378  40.5274200  44.3841314  93.7801075  42.0073891  44.0989876
 104.6435547  19.6709919  39.5434141 105.4130936  19.1985929  39.2258024
 104.9527073  20.5660748  39.6829939  76.2132645  18.5479987  31.6402698
  75.6615067  19.2065907  32.0622325  76.9731522  19.0379024  31.3259435
  97.5326157  58.8386965  21.0490894  97.4332333  58.0878019  21.6343403
  98.1867218  58.5584641  20.4088926  30.5716278  60.6821012  54.9918318
  29.8737480  60.3354645  55.5477381  31.2822200  60.8872747  55.5994320
  88.7827396  11.2056315  47.1949911  89.1023827  12.0910299  47.3685741
  88.4522915  10.9003484  48.0398798 111.4869881   1.6522682  23.0904603
 111.6696262   1.5086448  24.0190315 112.3353672   1.8838543  22.7125120
 109.3212891   1.5662938  32.0617867 108.9606571   1.6057317  31.1759996
 110.2445126   1.7953603  31.9549322  99.0865326  91.3916969  30.2619672
  98.4290409  92.0704937  30.1097751  98.8938999  91.0643673  31.1405921
  14.9685146  10.3739643  19.0558386  14.1148807  10.1066184  18.7151349
  14.8020698  10.5952704  19.9721086  13.6541130  42.9072475  11.7950535
  13.4328701  43.4894800  12.5218856  14.6110489  42.8863907  11.7876196
  91.3372231  31.8097949  19.2720997  92.2343826  31.7174459  18.9514589
  90.7912731  31.5053248  18.5472107 111.5528107  24.2098641  40.3344727
 111.4586830  24.0214872  39.4007230 112.4436474  24.5489979  40.4217815
   7.2020294  51.7856455  31.6051102   6.4286281  51.9077492  31.0545039
   7.8968765  52.2625494  31.1512494  15.4271938  17.1206939  24.8869467
  16.3071014  17.1519780  25.2624583  14.9257614  17.7556050  25.3984976
 111.1146450  38.8756061   6.6863054 111.3190174  38.6276436   5.7846522
 111.9063282  38.6601138   7.1792805  12.3966362  25.3038502  56.0241795
  11.4896919  25.2045393  56.3137007  12.4405433  24.8152518  55.2022457
   4.5877792  34.3973684  33.2440996   4.0041782  35.1027942  33.5234261
   4.8646499  33.9786983  34.0591383  27.9853534 103.8646976  60.6312418
  28.2939243 104.4509380  59.9403429  27.5326299 103.1621117  60.1647186
  73.6745118  96.0175670  68.1001091  73.2502412  95.5678011  67.3693991
  74.1061353  96.7718888  67.6989412 101.6954422  32.0155287  55.1276350
 101.5067482  32.3871970  54.2659521 100.8576584  32.0446563  55.5897093
  90.1122856  32.7480602  25.5693555  90.1207542  31.8468952  25.2467752
  89.5227051  32.7271008  26.3231397  93.6975861  25.1665115  18.6768949
  94.5267296  24.8321652  19.0188813  93.7614727  26.1160064  18.7799013
  82.9936695  43.3583164  23.9815927  83.8657761  43.3086920  24.3729997
  82.4222374  42.9224300  24.6138144  35.3125431  57.5394917  63.2687426
  35.6723835  57.2470999  64.1061544  35.9321739  58.2002640  62.9594374
  20.6213237  33.2985473  21.2458944  20.4817821  32.6463318  20.5593276
  20.7680465  32.7835107  22.0392680  93.4451294  35.6882882  41.7005920
  92.9564095  36.3970733  42.1189308  92.9660320  34.8943567  41.9380093
   7.3637439  39.2089844   3.1682944   7.7568771  39.1933346   2.2956932
   7.7610542  39.9673223   3.5964274  12.6639320  14.3709528  65.1797009
  13.2648994  14.0239835  64.5203924  13.2314254  14.6470308  65.8994055
  92.9986382  33.1341982  57.3425817  93.0949593  34.0137076  56.9773149
  93.4368992  32.5634098  56.7114258 111.1781693  37.4337459  86.1197567
 111.7540169  37.1598792  86.8336391 110.4644012  37.9011607  86.5536785
  15.2715255  14.9272561  52.1097517  15.8754016  14.1993821  52.2572851
  14.4251777  14.5083654  51.9533777  19.1973735  38.0610418  24.4688940
  18.5134079  37.3918772  24.4943357  19.7394230  37.8210354  23.7173557
  86.3583469  38.1063342  73.7772179  85.8635712  38.1642699  74.5945787
  87.1534538  38.6131287  73.9421082  96.9482708  15.3066564  64.7061777
  96.3303185  15.9485888  64.3564701  97.4654007  15.7959080  65.3460550
  94.7086239  64.1308069  89.4098568  94.3182373  64.3487883  90.2562046
  95.5846882  63.8109970  89.6254253 101.1972046  15.3978145  14.0846908
 100.6385040  15.9847236  13.5751510 100.9124279  15.5221283  14.9900556
   2.7163364  41.6407299  68.8073874   2.2057296  40.8663511  68.5710621
   3.5290004  41.5529394  68.3092880  67.3156881  32.8724074  30.9715295
  67.4991131  31.9331050  30.9887767  67.2256470  33.1158185  31.8928742
   4.1491081  75.0023317  74.9230909   3.2651378  74.8728848  75.2667046
   4.6361305  74.2332697  75.2190399 108.8202953  72.1118736  13.8720322
 109.7359085  71.8610811  13.7496519 108.3372402  71.2870359  13.8216233
  55.4511499 104.9375235  48.0383539  56.0357236 105.6753895  47.8649855
  54.8724317 104.9063093  47.2765446  17.6499225  29.7292686  57.6484013
  17.3911049  28.8081884  57.6190662  17.6895858  29.9962783  56.7300558
   0.6077434  47.6769876  31.1709213   0.5900909  48.6339998  31.1640668
   0.9634163  47.4501467  32.0301509 110.9483242  37.5355172  18.1902492
 110.4161263  36.7544150  18.0390048 110.5250645  38.2182121  17.6696634
 106.5038490  47.1052217  56.2729979 106.3659763  48.0504036  56.2109280
 106.2340546  46.8818092  57.1637964  98.1017303  57.8047323  39.1860342
  98.6206341  58.5797358  38.9707804  97.5000763  57.7067757  38.4480286
 111.6949272  81.9060516  65.8624077 111.8129635  82.3572254  65.0264978
 110.9711552  81.2992477  65.7069540   6.7998935  11.3578641  92.7253532
   6.4394237  10.5844688  92.2915840   7.4323608  11.7105842  92.0994091
  31.9737865  19.7230923  31.2088132  31.7261650  18.8289952  30.9732199
  32.4804451  19.6267056  32.0151901  20.3453495  43.8002443  73.3094549
  20.5612804  43.0777121  73.8989925  19.3982936  43.9070749  73.3983755
   9.5579673  35.4226732  23.2371616   8.7672283  35.6337047  23.7335849
   9.8138763  36.2507629  22.8309488  16.5082027  22.7862477  56.2145662
  15.7742550  23.1579876  56.7038202  16.2285568  22.8213525  55.2998018
  12.9088832  47.4683571  61.1500454  12.9109432  47.8702116  60.2812862
  13.2994415  46.6048813  61.0154533  10.8140995  28.2283425  47.1082354
  11.1866237  29.0308118  46.7428637  10.5531265  27.7155137  46.3432980
 105.7188988  59.7156239  51.0322285 106.1760426  59.4396687  50.2378130
 105.5945301  60.6582642  50.9218073  99.0658855  18.7649286  42.9817486
  99.6320629  18.0946958  43.3644533  98.2030487  18.5935664  43.3590841
 101.2346363  53.0770063  55.3112602 101.0590839  53.1439209  54.3726778
 101.5705013  53.9397907  55.5542135   8.6498691  56.8863869  13.2310724
   8.7392475  56.4575815  12.3799717   7.9357483  56.4167833  13.6620426
  70.8435965  39.2294288  29.2049742  71.2835646  39.7251558  29.8955631
  70.2180195  38.6740541  29.6702099  15.4488231  33.1976652  27.9049397
  15.0937702  32.9956818  27.0392776  15.9954597  33.9708924  27.7651572
  93.7608719  49.2456722  65.1662350  93.6457348  50.1773548  65.3531694
  92.8817749  48.8752079  65.2447796  79.3752337  32.6375031  39.5848393
  80.2131081  33.0960965  39.6472692  78.7241983  33.2929468  39.8353863
 100.0985336  14.4395387  41.9548750 100.3754425  15.3249347  41.7190170
 100.0812531  14.4409454  42.9119158  93.0188465  17.5964820  17.3197651
  92.3339176  17.1280408  17.7969134  92.5749302  17.9496026  16.5487409
 103.5191441  43.8169193  22.5249910 103.9173412  44.4609404  21.9394064
 103.1938553  43.1314468  21.9414258  91.5923691  47.6333141  65.6727266
  91.2453938  47.5448084  66.5604210  90.8424187  47.4592209  65.1039600
 112.1463776   3.4555966  57.5243139 111.3669395   2.9210740  57.6759720
 112.7289867   3.2417119  58.2530451  27.8286411  45.3569460  33.0784297
  27.7776672  45.5557156  32.1434855  28.7344696  45.0795174  33.2152748
  90.0088215  34.0023947  29.9550176  90.8867741  34.0140939  29.5738292
  90.1542377  34.1120458  30.8947325 109.2190552  32.5354528  31.9427752
 109.2141342  31.6410947  31.6017032 110.1453876  32.7744102  31.9750047
   4.5733978  19.4715941  32.8276181   4.1492988  20.1705265  33.3254790
   4.8873855  18.8598061  33.4934711  15.9723140  12.7071750  26.7171407
  15.2286293  12.8643179  26.1353660  16.7400219  12.9259253  26.1889291
  13.5176326  50.7967424  62.2053528  13.3615543  50.1829195  61.4876556
  12.6964618  51.2814569  62.2888136  83.5755920  12.1924317  22.3197508
  83.1649208  12.4507201  23.1448984  84.4895840  12.0246542  22.5493169
 109.1569996   6.4503324  63.7762356 109.7257710   6.5419042  64.5406675
 109.7115135   6.6929507  63.0346918  12.6464225  16.5341532  27.7489281
  12.4061061  17.2009909  28.3922052  12.6016189  16.9867146  26.9066596
 110.9753036  42.1815157  63.6711693 110.3955555  41.8369341  64.3504238
 110.7932663  41.6396427  62.9033995  62.5365305   6.2039816  36.5632391
  62.2510099   5.3757858  36.9489908  62.2789574   6.1412007  35.6434846
 110.8834934  10.1758897  20.8063984 111.1024666  10.7252038  21.5590858
 110.9493351   9.2798573  21.1365843 108.2754421  15.0900185  46.7106485
 108.9058685  15.5089819  46.1247587 107.8383160  14.4367230  46.1644316
  81.7262077  24.6363139  83.0012226  82.4632549  24.0366888  82.8852844
  81.2846661  24.6401405  82.1519566  62.1354437  65.7593679  16.5828693
  61.9071484  65.3806686  15.7339263  63.0395651  66.0555553  16.4776659
   6.0664035  19.2454743  23.6460733   5.5011512  18.7074101  24.2003298
   6.1450912  20.0747037  24.1176867  16.9869472  14.1082466  72.4615479
  16.2266494  13.9566100  71.9001436  17.3192455  14.9635017  72.1888828
 103.1948566  40.4472446  25.1508760 102.5841045  39.7874665  25.4793763
 103.9078426  39.9409199  24.7616291  79.4806862  44.1639757  73.9033127
  78.9012957  44.5770550  73.2630730  79.0784407  43.3127832  74.0762329
   5.7254936  45.8040905  13.5190558   4.9708225  46.0840654  14.0370536
   5.6182338  46.2502861  12.6790345   6.5905620  28.6597109  31.0610223
   7.0762588  28.6621141  30.2362084   5.8162071  28.1264544  30.8814383
 108.7136745  30.4883027  49.7622108 109.4257832  29.8720646  49.9336100
 108.9840031  31.2948179  50.2011633 104.3326378  63.5353756  69.0842295
 104.0845299  63.7386227  68.1823635 104.6456432  62.6314926  69.0486240
  13.1567241   7.0836669  39.9325681  13.8625671   7.4755788  40.4467773
  12.5275852   6.7757970  40.5849743  98.7771988  45.4661560  72.6050043
  99.7205448  45.4070377  72.4539042  98.5407162  46.3430643  72.3027802
  91.3002968  13.4769773  70.4480982  91.7021942  13.7933052  69.6389961
  90.7864189  12.7157152  70.1785707  11.8372776  73.5729218  54.2810774
  11.1648227  74.2536449  54.3067122  11.8318988  73.2649469  53.3747911
 103.6298084  36.4669800  39.8305130 103.9460564  36.5866709  38.9350295
 103.7564945  37.3202801  40.2453232  78.3088303  20.7208443  66.5784502
  79.0556955  20.2251244  66.2427664  77.9543877  20.1743531  67.2798395
   1.3217403  33.1163049  49.8127604   0.5374576  32.5707674  49.8720646
   1.9100811  32.6281095  49.2367887   1.2959434  26.9119191   8.1801361
   2.1207382  26.8707252   7.6961535   1.4325096  27.6034570   8.8277119
 110.2144623  25.3297997  64.6421051 110.9638786  24.9036407  64.2261600
 110.4994869  25.4911137  65.5415344  84.3333244  37.2403955   7.0301384
  85.0085163  37.3557782   6.3615268  83.6968899  37.9322243   6.8497211
  94.5646286   0.7855122  51.8109560  94.4521618   1.6012864  51.3230038
  95.3549099   0.9254463  52.3325968 109.1567612  65.4506540  27.6583195
 110.0655842  65.1560879  27.5990462 109.2092419  66.4041376  27.5923967
  92.2684002  33.3223057  38.3338070  91.9055367  32.4647164  38.1122184
  91.5072346  33.8483238  38.5790873   4.7605087  17.3620760  25.4300547
   4.1226532  16.6555083  25.5307603   4.5594837  17.9694951  26.1419964
  95.1185131  25.8641291  24.1073585  94.2253590  25.6631327  24.3868351
  95.6525230  25.1706672  24.4948912  28.3769180  17.4431503  33.1786394
  27.5665809  16.9989765  32.9290628  28.2528736  17.6673925  34.1008973
  23.1018306  30.5818987  58.4864378  23.9010002  31.1060166  58.5400152
  22.7762176  30.5490160  59.3859529  74.8678970   8.5141861  15.8865869
  73.9508581   8.7086296  15.6930470  75.2562571   8.3180600  15.0339770
 107.1811485   5.2674824   8.1622380 107.7995586   5.9175086   8.4958082
 106.3823605   5.4148573   8.6686414  16.5712501  22.8799558  28.5930729
  16.9052269  22.9407978  29.4880533  16.5063049  21.9398570  28.4250522
 101.9760418  23.6005521  66.2866735 101.8023872  24.4164443  66.7561340
 102.8543949  23.3445811  66.5680885   0.0859977  44.7018671  57.8582430
   1.0184909  44.6868324  57.6426649  -0.0017117  45.4131889  58.4927177
  32.4313261  90.8180006   9.2710602  32.2777083  91.1405213   8.3830177
  31.8057826  90.1012976   9.3771469  89.9037838  56.7846346  70.0675631
  90.3595638  57.4375200  69.5363045  90.5718708  56.1284637  70.2658749
  75.9374189  81.6806746  57.5259399  76.0475206  81.2966633  56.6560841
  76.7468785  82.1689010  57.6764202  69.3027639  32.3699808  38.7987924
  68.6970711  32.7355719  39.4435525  70.1613379  32.4254489  39.2183161
  12.1335365  39.7814965  29.7071528  12.5787117  39.5707560  28.8863993
  11.4983799  39.0748882  29.8234034  85.5668449  73.8917446  67.0280647
  84.6346951  74.1026211  66.9745922  86.0052109  74.7426605  67.0294428
  99.6591282  60.2043724  38.7702680  99.1549969  60.9665203  39.0552449
 100.5116653  60.3095865  39.1925716 107.8395700 106.3877267  76.6526318
 107.6895665 107.2807257  76.9629288 106.9646405 106.0514426  76.4586258
  97.7366352  27.7432370  24.6633816  97.7735329  27.3425007  25.5318737
  98.0685616  27.0667195  24.0731454  98.2755661  16.7184365  89.2341709
  97.9891109  16.0261726  88.6384010  97.7079391  16.6259861  89.9993324
  96.8294907  29.9118519  26.0328031  97.0162964  29.0874219  25.5837488
  97.6211071  30.4359007  25.9105444  16.2882377  16.6596079  60.9233093
  15.5897667  17.1139026  61.3944626  16.4614631  17.2119248  60.1609612
  99.2401600  57.5130415  25.4365706  99.3733692  57.0847368  26.2821722
  99.6679878  56.9347143  24.8051214  65.5927705  97.8946794  41.0218239
  64.7925615  97.8581751  40.4978228  65.4722261  98.6551881  41.5904427
  32.2203543  52.1813993  13.3931935  31.6421416  52.6766364  13.9733994
  32.4460509  52.7979874  12.6966870   8.1213523  46.0195398  26.8202949
   9.0693428  45.9888840  26.9491386   7.8355552  45.1123524  26.9278240
   2.8361084  39.3881154  41.2771606   1.9388820  39.2534685  40.9720564
   2.7434494  39.9252033  42.0640421   9.2659046   5.4416686  43.1726742
   9.5545818   5.0428218  43.9935398   8.6798812   6.1486042  43.4429646
  93.4389019  72.2921705  84.4463634  92.9380894  72.0446444  85.2236271
  93.4169960  71.5139627  83.8894653 102.8281784  48.1640005  40.8974314
 103.2203007  47.2910357  40.9174728 103.5473442  48.7548018  41.1210012
  17.7418472  29.5633698  35.0807858  17.7644874  28.7140083  34.6399856
  16.8241741  29.6815634  35.3260159  30.4356720  72.2870207  46.6334915
  31.2318184  71.9157124  46.2533569  30.0038482  71.5450811  47.0569134
 108.2356930   4.4872421  43.4778833 108.0724144   5.1487637  42.8056049
 107.5447083   3.8377693  43.3476400 100.0869370  75.4489660   4.8364931
  99.2472744  75.0841570   5.1159716 100.2640533  76.1501408   5.4635638
 101.3929844  62.0921803  30.4306412 100.5336571  62.2857571  30.0560498
 101.2563324  62.1328115  31.3771629   6.3419773   5.8477157  58.1600094
   5.6796886   6.0558051  57.5009966   6.8027450   5.0876105  57.8048182
  13.6775352  71.0664654  52.0718908  13.9423324  70.6723452  52.9030275
  14.4998886  71.3304090  51.6592169  62.4693346  81.9848061  37.1416235
  62.5549698  81.0352516  37.0565295  63.0069494  82.3382378  36.4329004
   3.1999065  53.3915806  55.8514738   3.8770057  52.7208424  55.9402466
   2.4395324  52.9206705  55.5104446 112.2941303  27.9605699  41.5995502
 112.5232220  28.8898778  41.6111755 112.9259968  27.5507140  42.1903086
  96.1749554  24.0874839  53.1888056  96.2465572  23.8315392  52.2692442
  95.3402996  24.5528722  53.2435942  16.7044880  48.9376450  70.9045649
  15.9186031  49.1186571  70.3889465  17.2278358  48.3601665  70.3488111
  83.3809280  45.8497667  64.0854025  82.9214001  46.2459517  64.8257399
  82.7772331  45.1831055  63.7577724  74.2180634  71.5088511  73.9221764
  74.9779367  71.7142582  74.4668150  73.6373854  71.0121918  74.4987011
 104.8975372  17.1495426  42.1262217 104.7679520  16.9676077  43.0569935
 104.0532112  17.4882841  41.8285656  28.2251026  58.2329607  46.0829878
  27.4497844  57.6727819  46.0467863  28.0546238  58.9198208  45.4384756
   3.6776973  63.6391211  51.2581635   3.4821273  64.2772388  50.5720282
   2.8555538  63.5452175  51.7393064 111.4182091  12.9610121  38.4023404
 110.8125877  13.6575699  38.6558270 112.2719765  13.3912647  38.3554220
   2.3151924  43.1417131  27.7063155   1.4991047  43.5271311  28.0252004
   2.3791648  42.3035336  28.1641293 105.3799248  30.8659601  28.6010242
 105.6177902  30.3846216  29.3934655 104.9460030  31.6564369  28.9221096
   8.4592487  58.8377476  50.3483057   9.3947651  58.8919783  50.5434847
   8.0325176  59.2298651  51.1101246 100.6540489  57.6665831  52.5120783
 100.2511978  58.4541607  52.8776932 101.5352345  57.9430246  52.2604609
  98.2071304  67.1159792  11.7457807  99.1643143  67.1098280  11.7453456
  97.9662704  66.9717073  10.8306825  -0.1721619  55.3654909  43.4806633
   0.3255512  55.1058245  42.7053642  -0.0448941  56.3122749  43.5409689
  24.6366359  38.7962961  27.6447940  24.4584514  39.5787644  28.1665492
  23.9969017  38.1534624  27.9509664 111.0747814  22.2904873  61.0788631
 111.8715668  22.3474288  60.5514908 110.6827354  23.1614041  61.0152912
   5.2828933  67.8357887  37.4987125   5.8582641  67.8530455  38.2634902
   5.8058979  67.4173307  36.8149066   2.0835544  86.6828442  59.3468761
   1.4751484  86.8791866  58.6344671   1.6090347  86.0657024  59.9038363
 104.3799782  45.2081251  24.9485755 104.1027260  44.5356035  24.3264174
 104.6394730  45.9488916  24.4007039   3.6696865  31.7357707  31.5437126
   4.4114734  31.8995285  32.1261001   2.9165603  32.1038914  32.0057964
 105.7596684  14.1154099  29.3455672 105.3182030  14.0698719  28.4974694
 105.9688663  13.2053304  29.5558643   9.1624405  33.3485866  45.1203299
   9.1144802  34.2793155  45.3386831  10.0983478  33.1735659  45.0219393
   0.0681736  59.4340086  24.5658398  -0.3125714  58.6019564  24.8468280
   0.3772976  59.2673779  23.6753869 105.0319767  66.0478640  61.4011860
 105.4676437  65.2392769  61.1317301 104.1724968  65.7644129  61.7129421
  13.2999279  60.9604216  25.8884835  13.4355690  61.9079447  25.8830500
  13.1625892  60.7434130  26.8105888  74.3064213  67.4339485  43.4700727
  74.2288971  66.7116833  44.0934134  73.9610481  68.1934023  43.9393044
   9.0547992  79.7041273  78.2752705   8.5131027  79.5454741  77.5022078
   9.2388774  78.8311338  78.6220074  14.6671917  57.8144026  44.7530556
  15.4973461  58.2379150  44.9714756  14.1064312  58.5285282  44.4500494
 108.8283634  77.9753208  51.6823196 108.8632202  77.0341349  51.8531418
 107.9039097  78.2027340  51.7818594  84.4933128  53.1443119  40.8572483
  83.5607433  53.1031990  40.6454611  84.7211838  54.0685606  40.7569361
  99.9808693  53.5167265  31.0291648  99.9807644  54.4638586  31.1676264
 100.0545597  53.4133720  30.0804186  86.8724060  60.9923697  28.3157992
  87.8033447  61.1056900  28.1240821  86.4244556  61.3614130  27.5546288
  28.4582759   8.6951751  72.6626444  28.4284355   7.8936452  73.1850338
  29.2593242   8.6140150  72.1449995  25.9313823  76.1685705  74.2044830
  25.8534767  75.8587217  73.3021784  25.6006290  77.0664406  74.1788006
  89.2507362  56.4346361  52.2813272  89.2911053  55.4985380  52.4770880
  88.6101913  56.7817593  52.9021597  10.3612854  65.5689192  89.3282509
  10.8800079  66.3725281  89.2911530  10.9758045  64.9010134  89.6323967
 111.1373234  73.5124397  64.2874432 111.7655849  74.1026163  63.8712502
 110.3263569  73.6401939  63.7952709  38.3132412  58.4702110  22.5041127
  38.5300686  58.7207842  21.6060972  37.8792621  57.6214218  22.4177909
  64.9541664  41.4579105  30.5053782  65.9027100  41.5857840  30.4931974
  64.7263670  41.2681246  29.5952582  24.1549685  94.8404439   4.9397671
  24.4840243  95.0019200   5.8240044  24.9398901  94.6671994   4.4200337
  10.1155044  79.0042686  37.8212166  10.2000286  78.1728554  38.2879496
  10.5326416  79.6454477  38.3966422  84.4843006  56.6751432  53.8655519
  83.6281872  56.8140364  53.4605789  85.0916100  57.1735382  53.3187342
   7.2496845  43.8816500  53.0403328   7.9695369  44.0732145  53.6414576
   7.0623638  42.9532719  53.1791115  95.4145050  32.8423715  42.9721594
  94.7641754  32.2756815  43.3870745  95.2436256  32.7563429  42.0342731
  90.2240086  68.3898306  75.8447599  89.9053383  69.1888428  76.2645960
  89.6051025  67.7126026  76.1177874  13.2533599  53.1231070  50.4034233
  12.4541713  53.4696436  50.8001995  13.9225246  53.7783527  50.6011724
   4.8211433  88.5357666  49.3107986   5.6060173  88.0323982  49.0944052
   4.7456314  89.1771889  48.6043215   2.4299862  25.9088206  56.3622236
   1.5893604  25.4784155  56.2062216   3.0475761  25.1888227  56.4903593
  87.4994278  23.7327218  31.0937738  88.4173203  23.4646702  31.1367917
  87.0247650  22.9287434  30.8826995  92.0133305  82.6337624  54.0097666
  91.5719986  82.5727177  54.8569536  92.4919987  81.8087769  53.9290619
  58.5802987   3.7119228  14.4543469  57.6985315   4.0740234  14.3671429
  58.4660295   2.9309351  14.9958527  14.6269085  54.4871998  27.4888515
  15.0019695  53.6220503  27.3242879  15.3639080  55.0901985  27.3916054
  66.5735912  68.7762690  48.4596968  66.2822723  68.2426023  47.7203941
  65.8679199  69.4095945  48.5906982  11.6970874  43.2163095  56.9004583
  11.6446258  42.3244190  57.2439861  12.3121597  43.1556559  56.1695385
  73.0171919  62.5710630  33.8828516  73.1476355  63.0262709  33.0509853
  72.7514076  63.2588911  34.4931650  14.3340160  33.5820985  35.3928351
  14.6625854  34.0881824  36.1359024  14.6485759  34.0555954  34.6227169
  92.5286961  42.2002506  71.3916206  91.8618393  42.3645878  70.7248878
  92.4186230  41.2767220  71.6179323  39.5292952  88.0107553   1.3168728
  39.9828341  88.4636838   0.6059658  39.6731760  88.5647304   2.0841038
   4.7099735  83.4255791  56.3747549   4.8901607  83.1698132  55.4701281
   3.8877441  82.9848385  56.5890265 110.2175236  72.2781277  30.7046843
 110.7757282  73.0073118  30.4346347 109.9090767  71.8956232  29.8832321
  19.2869712  48.3891249  37.4044561  18.7350036  48.4650850  38.1827855
  20.1581623  48.6511278  37.7021503  88.8001489  95.1746023  53.3214474
  88.9633416  94.2603875  53.5534239  89.0026902  95.2244819  52.3872519
 108.7614822   3.0249494  19.9522758 108.2718468   2.4781302  20.5666733
 108.9830399   3.8094780  20.4539323  69.1587209  97.1689416  18.4114575
  69.6763086  97.7922845  18.9211404  69.7741746  96.8150998  17.7693963
 102.9306126  12.5929415  46.5807390 102.5220394  13.2611454  47.1310139
 103.8705349  12.7127838  46.7164612  89.4893456  42.0015955  58.7052250
  89.4068623  41.6909218  57.8036118  90.1706600  42.6727915  58.6658955
 105.3855610  14.3878305  32.7601171 106.2377453  14.2095053  32.3623562
 104.9088764  13.5610890  32.6858854   0.4517509  38.2752585  31.8065667
   0.3904201  37.3751116  31.4868736   0.0034572  38.7969184  31.1408854
  98.2620621  26.6026449  35.3395700  97.9929447  27.5202775  35.2976346
  99.0716457  26.5669513  34.8301387  96.9639111  50.1188803  39.9275374
  97.0597744  50.2288008  38.9815140  97.4044609  49.2907763  40.1183033
  11.7760231  11.4862144  45.7500696  12.4220420  12.1921468  45.7734919
  11.0875942  11.7715240  46.3508129 105.9614274  82.0927566  90.5044929
 105.6906506  81.1750453  90.5313352 105.7197329  82.4390143  91.3635166
 110.0441360  39.3168879  10.3289771 110.4841995  38.5821819  10.7565045
 109.4968987  38.9102054   9.6571296  85.3096485  39.2730546  58.5737276
  84.5290184  38.7900186  58.8448715  85.3518200  40.0168848  59.1747046
  89.9164677  67.9713631  33.4305477  89.0076637  67.6717567  33.4070277
  89.9307156  68.6395597  34.1157770   3.6583950   4.9716723  48.8147402
   3.2195903   5.6231010  48.2676363   4.4244720   4.7077700  48.3051205
   3.8607265  26.3087702  44.5993137   3.6900856  25.3999949  44.3518496
   4.2016174  26.7141509  43.8020086  64.5313405  96.8190289   4.4514683
  64.0357446  97.5292487   4.8591402  65.3394078  97.2336215   4.1491839
  17.6006125  87.6166719  89.2145330  16.9255255  88.0012076  88.6554128
  18.1414698  87.1006744  88.6166570 105.3250122  33.3947039  39.1713881
 104.9265289  33.4555197  40.0395727 106.1745167  32.9816580  39.3261647
 105.2441311  29.7614336  56.9692183 105.6739140  29.9175429  56.1282969
 105.5374527  28.8883066  57.2296762  84.8439693  10.0499690   6.4887935
  85.0850010   9.3896538   5.8390880  85.1529408   9.6913564   7.3207575
 107.0027256   1.0492326  25.7891178 106.3058376   0.5458779  26.2100840
 107.0400810   1.8673627  26.2845969   2.0135738  40.2662134   8.8452238
   2.4297859  40.3704119   9.7008765   2.5462581  40.7975388   8.2534707
  30.0903560  35.0796580  19.2638791  31.0096504  35.1111841  18.9990354
  29.6857215  34.4649148  18.6518395 105.3924465  40.8046722   1.6809033
 105.0560951  40.1331377   2.2743157 105.6732273  40.3197050   0.9048875
  64.0066384 101.4881701  19.7650564  64.1415261 100.8262802  19.0868676
  64.8160981 101.4761597  20.2758121  15.5733012  54.0464407  84.0586460
  16.2796305  53.9724343  84.7004044  15.4459761  54.9889191  83.9502335
 109.2683506  30.4258800  47.0921183 109.1824532  30.4345727  48.0454159
 108.8916969  29.5873189  46.8253326   7.6408245  50.9552813  55.9830904
   6.7104293  50.7328129  56.0163403   7.7047493  51.6152859  55.2927685
 100.9249306  20.6723499  38.7978816 100.4764748  21.5119839  38.6972070
 101.8551350  20.8882189  38.7318778 102.8701973  10.3688943   8.0824757
 102.6930809   9.8654956   7.2878385 103.8093758  10.5502713   8.0467439
 103.2648849  16.1081946  16.5757000 102.3777580  16.0427642  16.9291735
 103.8325119  15.8624589  17.3062134  86.1569165 104.1268212  21.7695642
  85.4737710 104.3421460  22.4045348  86.2581300 104.9227140  21.2475085
  83.5706425   7.9016334  59.3762970  82.9271221   8.0001938  58.6745882
  83.4677887   8.6907822  59.9081802  79.1501474 103.6623356  16.9005549
  78.3581018 104.0527827  17.2699392  78.8464784 103.1958813  16.1218143
 111.7902088  15.8431137  -0.1176303 111.4958954  16.7027974   0.1832924
 112.5737762  15.6628811   0.4017633  69.6242379  67.4132038  33.8365221
  70.4338597  67.9202104  33.7758136  68.9285134  68.0548764  33.6934876
  71.2220907  -0.2387813  19.2617118  72.0888853  -0.3933218  18.8861930
  71.1672831   0.7123531  19.3542957  19.9712179  74.0995067  84.6098006
  19.0294073  74.2663735  84.6470231  20.2263544  73.9621084  85.5220825
  83.4831715  29.9678636  34.5264006  83.6144733  30.8867478  34.7601533
  83.4379387  29.9680567  33.5702682  29.9863909  37.6573878  91.8065767
  29.0801047  37.9382151  91.6800227  29.9488638  37.0545226  92.5491247
 100.5339146  16.2504756  66.1749744 100.2305412  17.1353972  66.3777256
 101.3728523  16.3803315  65.7327557  67.7504396 101.8457634  14.9883747
  68.3414983 101.4084530  15.6012774  67.1714543 102.3669786  15.5445564
  80.7134724   4.9085635  52.7486086  80.8068943   4.8626566  51.7970848
  80.5881500   5.8395702  52.9323292  25.5103065  19.1574180  48.0807924
  26.1305477  19.3829703  48.7740898  24.7067405  19.6200287  48.3184958
  62.4457312  13.2114351  35.1681638  61.7035675  13.2266688  34.5638514
  63.0949879  12.6563787  34.7361827  55.3481865  16.6347039  38.7006855
  56.0456467  17.2874403  38.7616277  54.8610544  16.7275417  39.5194149
  98.3904743  11.5632808  33.5126734  98.2885551  10.7523715  33.0144072
  97.9919434  11.3741207  34.3621588  55.8574056 104.2188711  14.8005104
  56.3742303 104.8204265  14.2645490  55.7904195 104.6530218  15.6509566
  87.0548344  36.3959169  51.5132999  86.5092754  36.1114931  50.7800150
  87.9457664  36.1604452  51.2544346  56.6209363  83.7925649  33.3124256
  57.2015905  83.8246108  34.0727162  56.3162183  82.8856755  33.2818246
  99.8100376   4.4877115  17.1816480 100.2479553   3.6442387  17.0675826
  99.6957779   4.8205733  16.2914908  88.7693501  28.4729838  20.9677768
  88.1456280  29.1176200  20.6336355  89.5855904  28.6686039  20.5076623
  95.0449848  19.9719489  31.4659619  95.9560871  20.2348900  31.5962553
  94.9836159  19.7759402  30.5310559 106.7932415   1.5310578  66.0220289
 106.7198181   2.1361095  66.7601061 105.9682369   1.6313632  65.5471087
 103.5865784   6.7178321  48.3484936 104.1951370   7.2896659  48.8163519
 104.1239452   6.2910056  47.6811934  93.4173393  12.4268126   0.2532087
  92.9783535  11.6711307  -0.1372664  92.7372646  12.8577495   0.7709168
  11.4899303  26.0705709  22.9748440  11.8913700  26.5315938  22.2382760
  12.1379234  26.1305332  23.6767983  13.6724998   3.0087718  44.8277903
  13.2661678   3.3778635  44.0436363  14.5452549   2.7396560  44.5412397
  12.9668997  77.3710459  83.5920328  12.3123358  78.0693858  83.6015046
  13.2383345  77.3095911  82.6761824  97.4925232  44.9209118  17.5245380
  98.1217480  44.2820024  17.8593636  96.7451954  44.8552942  18.1190372
  87.3412418  32.1929812  30.2743435  88.1133366  32.7419186  30.4113460
  87.3140621  31.6219449  31.0420752  99.8183632  56.2574244  48.9232922
 100.2920723  57.0313597  49.2280149 100.3675556  55.8997154  48.2256794
 102.4339962  34.1935372  26.9964695 102.5628185  33.2503891  27.0970082
 102.2096252  34.4996452  27.8752112 109.6392918  39.8955202  25.3181243
 110.2586365  40.2358294  24.6724892 109.2362881  40.6761789  25.6981039
  19.6309711  52.2214603  39.3517303  19.8605014  52.7652884  40.1052570
  19.0790035  51.5290880  39.7153068  77.2759628  17.7141070  57.1076536
  76.7642260  18.0480421  57.8444338  76.7250633  17.8740168  56.3413858
   5.0312378  41.0172510  66.6413212   5.5793048  40.7091570  67.3630810
   5.3304340  41.9117594  66.4783239  73.0737686  20.2687621  11.5551853
  73.3067465  21.1919260  11.6537964  73.9115763  19.8064387  11.5790212
  97.3807526  32.5764894  33.1043077  96.9810963  31.8137240  32.6863432
  97.7849293  32.2294998  33.8995886 104.5821571   3.2864854  19.0703559
 104.6961308   2.8466037  18.2278919 104.1271877   4.1008371  18.8557351
   2.2790767   7.2562921  21.9748783   1.9608928   7.7398741  22.7372026
   1.5293933   6.7315274  21.6941166  79.8834610  38.5700583  19.5028079
  79.8913193  38.5541153  20.4598427  80.7993507  38.7020063  19.2579317
   4.2209290  91.9448369  59.0923155   4.8818301  91.4801114  58.5790193
   4.7125815  92.6185077  59.5620740  83.7997532  26.9528461  69.5479298
  84.1647911  27.5835156  70.1686001  84.5651245  26.5427041  69.1451550
   0.2266361  48.5029554  34.0568805  -0.0751160  47.8040552  34.6371555
   0.8214141  49.0229225  34.5973444 112.2710896  31.1813688  21.1871624
 111.4827728  30.7521391  21.5196347 112.1476078  31.2073326  20.2383161
  22.3990820  84.4786065  88.4040809  22.0668505  84.3522471  87.5153238
  23.3362387  84.6360725  88.2893277  70.8504151 101.2036390  40.6996012
  71.2077474 102.0702005  40.8935499  71.2992620 100.6176043  41.3089705
  66.3647889  96.2084354  43.8732004  67.2977590  96.1981321  44.0869474
  66.3330506  96.4648152  42.9515171   3.3377601  24.2655468  34.4098592
   2.9740860  24.2848039  33.5246468   3.7994815  25.0994539  34.4972968
 105.6199551  50.6379843  11.9866145 105.9942341  50.9751368  11.1726928
 106.3776588  50.4677057  12.5461853 108.5756588   6.1288762  39.4179225
 108.5728645   6.8235451  38.7593961 109.3460846   5.6016093  39.2065930
  97.4188614  53.2621479  48.9716196  97.3450947  52.4813795  49.5204258
  97.0252037  53.0065870  48.1373835  66.2034988  17.6598179  44.4431114
  66.8398809  18.3323598  44.6858788  65.3727627  17.9771769  44.7972250
  89.1113377  35.7321930  54.2440653  89.9129677  35.6819749  53.7233877
  88.4606934  35.2555370  53.7286139  41.4975546  74.3818873  91.3848612
  41.8879317  73.5341757  91.1722160  42.0461367  74.7284430  92.0885565
   7.0575763  17.4206436  30.7904935   6.1272861  17.5611269  30.9667110
   7.2253181  17.9098392  29.9850225  95.8017063  32.0490575  49.4408655
  94.8671436  31.9618964  49.2531967  96.1123085  31.1484551  49.5340061
  18.6975719  41.9960785  11.7745316  19.4761039  42.5063276  11.9976258
  19.0276291  41.1111259  11.6191137  76.6455983  96.4966703  18.4275627
  76.7449521  97.3060585  17.9263115  75.9970235  96.7087484  19.0988362
  90.0069809  13.2677829  52.3466778  90.1908398  14.1744614  52.5923586
  89.7333908  12.8492343  53.1628847  18.0173446   6.7651504  12.1025503
  18.3149482   5.8720160  11.9294214  18.1753399   7.2333956  11.2827849
 101.8564748  91.9257463   8.6821634 101.5658521  92.6700330   8.1550932
 101.3615083  91.1816455   8.3393025 112.6822281  40.4538965  59.9220657
 111.9523525  39.8820734  59.6843004 113.0904198  40.6811905  59.0866280
  14.3285991  32.9455256   1.8764757  14.5236637  32.9055333   0.9402157
  15.0585319  32.4873304   2.2929934   8.0597545  32.0974064  23.1289315
   7.7442218  32.6967907  23.8052511   7.2641040  31.7645264  22.7137566
   1.9910003  14.2766941  52.8465652   1.2007190  13.9390457  53.2680845
   1.8254615  15.2137589  52.7429342 100.8346367  19.0250230  17.2041380
  99.8988342  19.0312409  17.4053288 100.8784866  19.1957164  16.2633014
  85.8358192   7.6947087  47.9254103  84.9012852   7.4912262  47.9637432
  86.0799789   7.8711867  48.8339663 104.8759698  93.3517588  56.5165377
 105.7107114  93.3041418  56.9825649 104.2294835  93.5266328  57.2004318
  82.4884129  49.3360758  35.4662943  83.1581116  49.9767828  35.2270722
  82.2601128  48.9086676  34.6408033   9.9237110  74.9347067  28.1537414
   9.0427162  75.2023697  28.4153533  10.1746513  74.2736053  28.7988758
 104.1626740  34.7290301  41.7235041 103.5791492  35.2327490  42.2909594
 104.2103386  35.2396250  40.9152603   3.1292965  46.0847425  67.9648018
   2.4963523  45.3740692  67.8620052   3.1893875  46.4796495  67.0949364
  26.6361381  23.0880141  53.4753895  26.5323497  22.1455050  53.3444786
  25.8898117  23.4767962  53.0192375 106.1867809  25.4970765  34.4496512
 106.4439964  26.1521125  35.0984931 105.3526974  25.1554394  34.7718644
   7.2205402   8.8600302  40.6580782   6.3257934   9.0523660  40.9385586
   7.2203209   7.9184932  40.4856300  98.8218975  14.9770105  50.0077772
  99.5508957  14.9852705  49.3875074  98.0957508  15.3769839  49.5292807
 101.2400818  27.9379916  69.3769121 101.0348129  27.7316904  70.2887964
 102.1690845  27.7257729  69.2866087  99.3863583  13.2605755  18.7034512
  98.6855125  12.6579428  18.9522159  99.9811745  12.7303290  18.1731129
  90.7059669  33.4877181  79.5714664  89.9706745  33.6861348  80.1513004
  90.9772396  32.6046848  79.8222542  93.6847115  29.2416024  34.6649837
  92.9091835  28.6827564  34.7147036  93.7879467  29.4255137  33.7313080
 111.6442204  50.5949783  23.0946493 112.0359421  50.6872797  23.9631343
 111.8131638  49.6848011  22.8512001  37.8841926  67.1832180  49.3174314
  38.0208732  67.7023602  50.1099205  37.5814964  66.3332748  49.6371222
   9.1154815  32.1400380  67.8358555   9.2384578  31.4565229  67.1771336
   9.7613384  32.8094006  67.6099110 107.9009151  47.1780968  47.1420956
 108.8473225  47.1884632  46.9991016 107.6210213  48.0747318  46.9578886
  92.6979016 104.1309628  11.3491940  93.0467462 104.7667681  10.7244575
  92.1491479 103.5518161  10.8203423  99.6941280  17.9213548  27.5271583
  99.1866112  17.2818327  27.0274878 100.1892948  17.3958826  28.1555867
  11.3092090  35.9492373  64.2562294  11.3013603  35.0915861  64.6812010
  10.6662323  36.4640570  64.7438478  80.6043339  52.5796652  35.0628734
  81.1934376  52.5346804  34.3097687  81.1476040  52.3220015  35.8076525
  76.8812109  98.6024792  29.8303997  76.7959143  98.2279618  28.9536488
  75.9795261  98.7210591  30.1289570  91.3693084  37.4476797  21.2767708
  91.5305556  36.5723402  21.6289055  91.3611354  38.0174810  22.0458519
  35.6289261  90.8038552  24.5726502  35.0459496  90.0943811  24.8428738
  36.2625732  90.3845866  23.9904701  56.8971015  88.4839828   7.6244080
  57.6469684  89.0248687   7.3766720  56.2513543  88.6396987   6.9352066
  83.4424742  10.6953365  45.4302799  84.3498476  10.4303533  45.2796375
  83.1408627  10.1255161  46.1377823  38.8744839  94.2940123  19.9532711
  38.1485137  94.8989470  20.1057636  38.4628550  93.4306891  19.9149906
 112.5360457  79.3239880  87.6802826 113.3811197  79.6238947  87.3454189
 111.8902104  79.8369789  87.1945190  22.4769449  67.8408432  82.4538898
  23.1933641  67.4364138  82.9431820  21.7016101  67.6875830  82.9938889
  23.9351753  23.1827528  40.1871121  23.3250764  23.8571627  39.8884880
  23.8242057  23.1633217  41.1376583  17.7135658  63.8672447  83.7373924
  18.4346879  63.7015963  83.1301212  18.1419551  64.0525150  84.5730877
  21.4349842  64.4227076  89.5926857  20.7721019  65.0723886  89.8266411
  21.2207961  64.1752052  88.6931896  94.5927872  29.6353228   9.1281521
  94.0297319  29.3032629   9.8273861  95.2128245  28.9251882   8.9623272
  27.1850824  38.1429553  91.9380093  26.5335178  38.6968064  91.5079594
  27.1297741  38.3822989  92.8631496  19.1005957  84.8182869  85.4878044
  18.2045186  85.0236797  85.7544327  19.0031886  84.1263390  84.8336220
  66.1077906 102.3032267  46.9026959  66.4531637 101.4449246  46.6572010
  66.0211230 102.7727540  46.0730755 100.1851870  19.9597914  20.9830296
 100.4984166  20.7194979  20.4921543  99.7769930  19.3997080  20.3227913
  48.6757267 104.8948748   3.1023609  49.0634645 105.1937659   2.2798264
  47.8117991 104.5657856   2.8542435  76.1080719   1.3878805  13.1667626
  75.1812089   1.1672623  13.2588684  76.4705089   1.2710316  14.0449440
  42.0659874  91.7358811  27.9358017  41.3461361  91.4608486  27.3680031
  42.1987269  92.6598127  27.7237522  45.6439705  83.4427030   2.5127041
  45.3697599  82.5266368   2.5558865  45.2159751  83.7840779   1.7275250
 105.0924949  29.7663927  91.8571949 105.2454661  29.3690300  92.7144814
 104.3166403  30.3130269  91.9815826 100.9878041  48.8617021   2.2622978
 100.6778361  47.9566080   2.2311604 100.4896213  49.3091471   1.5783131
  59.1381909  36.7779047   8.4256375  59.7197713  37.2214586   9.0430939
  58.2575537  36.9565184   8.7554943  12.8891158  46.8249416  90.6269646
  13.5314417  47.4115658  90.2275753  13.1205463  46.8130350  91.5556908
  45.0980616  97.9532177  26.5120327  44.2631067  98.3985598  26.6560852
  45.5576236  98.5048087  25.8789551  23.5898066  56.6633463  78.7882710
  23.7059951  55.9889174  78.1190395  24.4767141  56.9717884  78.9739847
  76.1831403  20.1442558   9.1942608  75.7849212  19.3364555   9.5184815
  76.9849847  19.8573763   8.7572491  61.7302609  98.6818821   8.3981907
  60.8832312  98.4395583   8.7724220  61.7342378  98.2756026   7.5315010
  47.0743799  55.9003735  91.6351509  46.2442923  55.4338455  91.5375233
  47.3168802  56.1470890  90.7426453  60.5075789 104.6000369  18.9973366
  59.7994161 105.0468714  18.5335743  60.2562261 104.6460135  19.9198067
  17.7002323  70.7743454  90.3574467  17.6736271  71.5099812  89.7455883
  17.0996499  70.1297474  89.9832439  38.7216878  54.2733526  83.6358356
  38.9911103  53.4486246  84.0401554  39.4451571  54.5014954  83.0520821
  20.4307532  51.5295553  86.7116547  20.9335756  50.7540417  86.9606113
  21.0876179  52.1490574  86.3938808  55.6252838 104.1562064  10.5955422
  55.3003872 103.3734019  11.0403931  54.9582673 104.8217185  10.7641232
  60.0892711 100.3869183  55.2655041  60.3959108 101.2271626  54.9246323
  59.7743870 100.5866272  56.1470997  76.7939033   8.5187895  19.6229469
  76.8438079   9.2730982  19.0357792  76.8202292   8.8972027  20.5017769
  78.2616939  19.2913753  14.2430699  78.9744492  19.5230562  14.8384964
  77.5268529  19.8356659  14.5258915  98.4271003  99.8492510  13.5593807
  98.0625487 100.7285244  13.6604130  99.2698623  99.8859437  14.0117466
  16.5415169  95.6391985   7.1102345  17.2823954  95.9701235   7.6179993
  16.0549856  96.4237626   6.8573010  28.8675053  97.4056084   2.5147164
  28.5236503  98.1872780   2.9471314  29.5982958  97.7261956   1.9861328
 110.6991388  50.4704618  89.1997910 110.1208030  51.2320042  89.1572285
 110.1137479  49.7194147  89.1024494 103.2072546  46.3737757  33.1401264
 103.8060524  46.9345552  32.6469814 102.4948193  46.9566233  33.4027302
  13.6492875  10.9107334   4.7209465  13.5643199  10.7227308   3.7862408
  13.0407050  10.3046400   5.1434529  85.0878401   2.6851637  19.2382347
  85.1215454   2.0018370  18.5687935  85.0843562   3.5048181  18.7438690
  66.2304075  21.6089136  10.3019344  67.1508117  21.5051443  10.0604355
  66.2289532  22.3236734  10.9385979  75.6617878  67.9308653  89.6177197
  75.4133485  68.7494183  89.1882038  76.1411355  68.2062960  90.3991318
  13.0264238  22.1628553  26.2090408  12.7580789  22.5235397  25.3639805
  13.9301303  22.4584038  26.3195049  45.4133274  20.0702793  46.0613548
  45.2957894  20.2872021  46.9862091  45.9811761  19.2997200  46.0663616
  78.5339604  22.9774219  37.7189934  78.8486625  23.0902178  38.6159146
  78.4216748  22.0318252  37.6216995 102.2124006  12.1624023  28.2892906
 101.5310456  11.5242321  28.5007775 102.4232055  12.5742752  29.1272366
   5.9977019  50.3832197  90.6468105   6.2385559  51.3089418  90.6823730
   5.0422376  50.3819418  90.7044220   8.2413834  46.7203617  49.0885544
   8.3172941  47.6527309  49.2914295   7.6789457  46.3699675  49.7792912
  37.8672004  35.5143189  81.2361526  37.2091818  35.7942772  81.8724346
  37.6644874  36.0149908  80.4459190  44.4332886  78.7590265  89.7199154
  44.2119169  79.6613741  89.9501133  43.6261177  78.4012604  89.3501663
   7.3505032  72.2734737  88.4545135   7.1138048  72.5030327  87.5558949
   7.7390462  71.4014816  88.3845329  15.9915972  65.0242043  88.8639545
  16.6487217  64.3411255  88.7304592  15.8258116  65.0161171  89.8066521
  85.3725339  92.9865725  12.8936112  85.5310727  92.2857196  12.2612393
  85.3020717  92.5376208  13.7360584  10.7007217  33.6959529  57.3560667
  11.0832703  34.5733356  57.3466253   9.8583800  33.7971544  56.9128418
  65.4239965  77.6822264   1.4542114  66.1808682  78.1626756   1.1187374
  64.9104024  77.4699409   0.6748593  61.6680694 104.7280486   6.8878948
  62.0110346 105.4994519   7.3390495  61.1578346 104.2679198   7.5543606
  55.9519673 100.8827002   8.2568657  55.7502580 100.8090527   7.3240578
  56.2363458 100.0046093   8.5104763  71.5620141  13.9136917   9.0662968
  72.4876006  13.8084347   9.2863953  71.3499780  14.8052437   9.3427193
  81.8636175  20.8137686  48.3345425  82.6990618  21.2689335  48.4398377
  81.6806437  20.8629734  47.3962795  80.3853281   0.3491814  25.5693352
  80.6422378   0.6354458  26.4458573  81.1760558   0.4570133  25.0407993
 103.4821011  52.4516470  20.7034409 104.2788531  52.7711279  20.2799427
 102.9928233  53.2446367  20.9225189  70.2514281   6.3938839  17.9585278
  69.9042429   6.7924768  17.1605122  71.1895304   6.5822441  17.9317677
  95.6124117   9.5549852  28.7131226  95.5940272  10.5062611  28.8178646
  94.9611606   9.2327864  29.3362534  27.1550012  87.5996113  83.2971191
  27.2195268  88.3262825  82.6774311  26.8250322  86.8682671  82.7751160
 102.8523447  31.7598040  42.1846211 103.6700894  31.3090307  41.9740688
 102.4956633  31.2740023  42.9282581  10.7693818   7.9555256  33.1843197
  10.3096631   8.2299454  32.3908531  10.1361755   7.4106867  33.6516869
  78.1895523  12.9869539  14.6429169  77.4674201  13.4778912  15.0350201
  78.1119566  12.1085245  15.0151646 106.2163021  46.4902098  53.4274113
 106.3923599  46.7721826  54.3250382 106.1306907  45.5387575  53.4876644
  89.7833491  95.9703000  24.2484963  89.9805737  95.3549750  23.5423004
  89.1644717  95.5017407  24.8085701   8.6644405  72.5655508  72.7046299
   8.9006603  72.7599239  71.7976284   8.2781953  71.6904497  72.6692677
  10.1981929   0.2524406  21.1089337   9.4704011  -0.2609032  21.4596951
  10.8978418   0.1476890  21.7537129  91.4821233  41.0911257  15.9377777
  91.7335285  41.5109236  15.1151001  90.7737042  41.6371996  16.2786209
  98.5459115  17.4372274  15.7613098  97.9569890  16.6940004  15.6308472
  98.1288315  18.1588108  15.2905762   2.8958610  43.3599169   1.5356075
   2.3852113  43.0665857   0.7810032   3.7945560  43.4134275   1.2104714
  92.8448261   9.9199802  26.8113339  92.1182491   9.3464071  26.5677464
  93.4815289   9.3373377  27.2252953  49.0039825  94.2158413  88.1461430
  49.2536545  94.0851402  87.2313690  49.8015642  94.5341301  88.5689735
  52.0321310  80.1769240   5.0900471  51.1632467  80.5615504   5.2055084
  51.8608309  79.2810662   4.7996533  14.2800188  67.8256702  84.5231915
  13.4575295  67.9774523  84.0576744  14.0442252  67.2372913  85.2404404
  88.7912751  95.5288584   4.3138706  88.7413550  95.5882390   3.3598149
  87.9075003  95.7416804   4.6136582   7.3240665   2.9195816  18.1683170
   6.6384414   3.2059080  17.5648510   8.1417421   3.0968077  17.7033150
 112.1839051  39.0431261  82.7664852 112.9366852  39.6050143  82.5825405
 112.4705547  38.4886336  83.4921551  87.8912641   3.4874660  19.6253407
  87.0814635   2.9850895  19.5355141  87.8851296   3.7914068  20.5329907
  96.1502315  63.7496836  17.1614754  96.5148284  62.8797323  16.9987309
  96.8514086  64.3530924  16.9155323  23.3116296  14.3451912  40.0392067
  22.4444249  14.7487719  40.0030243  23.7704566  14.8248751  40.7288563
  29.3000412 102.8356647  83.8816833  29.4385481 102.0759678  83.3160782
  29.9704885 103.4622955  83.6095333  61.4120603  99.8834212   1.4183914
  61.4086533  99.5902617   0.5071938  62.0899082  99.3535693   1.8379318
 103.5537793  19.2465813  12.5577652 103.6911799  18.3767969  12.1824944
 103.5496356  19.1013128  13.5038674  10.6810764  31.1512548  23.7996304
  10.0341848  31.8280394  23.6003124  10.6334356  31.0468370  24.7499191
  20.8936882  58.0841064  71.3908625  20.3916931  57.3195696  71.1085272
  20.2637410  58.6193895  71.8734264  64.2340149   4.1990740  26.1688816
  64.7080673   4.0105135  25.3589737  63.9026655   5.0892860  26.0507500
   5.5301622  23.8649828  24.5086682   5.9555105  24.6882612  24.7485077
   5.6224969  23.8159830  23.5571968   3.9590600  16.2673218  18.5745632
   4.0939430  15.3986723  18.1957733   3.0656055  16.2431080  18.9171803
  11.0152295   6.1688024   7.2748100  10.9936193   5.7211716   8.1206143
  10.5399087   6.9861156   7.4241650  40.7039798 101.0781033  35.9037029
  39.9130226 100.8449061  35.4176628  41.2269447 100.2764113  35.9089958
   3.4157136  31.4712126  17.1623528   3.1468967  31.1409742  16.3050854
   2.9239658  30.9399969  17.7886212  76.2315171  27.4796564  25.0454056
  76.2777504  28.4349996  25.0079262  75.2980952  27.2818548  24.9690449
 112.4620701  50.9608251  25.6567299 113.0190016  50.2487833  25.9714710
 111.7389657  50.9940607  26.2830364  90.0168394  50.6941366  87.0159626
  90.3829764  51.0253477  87.8360081  90.3692959  51.2771273  86.3435555
  22.5071100  59.2279322  23.4827149  21.7406610  59.7994978  23.4369671
  22.4511197  58.6886103  22.6938927 103.2716084 106.3799651   9.2676365
 102.9277993 105.7660754   9.9166023 103.8603164 106.9484980   9.7640526
  84.6132644  25.4149753  21.1446392  84.4236280  26.2497312  21.5729534
  85.3198232  25.6157667  20.5308830 108.2326152  24.3674786   9.7280609
 107.8585817  25.1311809  10.1674854 109.1712906  24.4242556   9.9066555
  25.7085479  16.1796379  77.2365570  25.5224408  16.1419105  76.2983799
  26.6641284  16.1718845  77.2916746  35.6512904  88.3895588  91.4412594
  35.6396198  87.4347019  91.5071678  36.5446925  88.6353111  91.6814041
  10.7663873  33.8561804   9.2773258  11.3672307  34.3054850   8.6829006
  11.3040164  33.1867201   9.7004234  44.7698904 106.4333518  35.9694016
  45.4005493 107.0313342  36.3705456  45.3008164 105.7027276  35.6523335
  21.0532192  59.9149877  44.4649422  21.4596322  60.3149301  45.2337849
  21.7890933  59.6828920  43.8985073  10.0078347  56.6727240  21.0274613
  10.0913432  57.2240621  20.2494633  10.5951789  55.9351332  20.8624947
  78.0913891   1.1287910   9.6261131  77.5843977   0.7940847   8.8864052
  78.9976864   1.1214144   9.3182099  58.7748004  92.6935203   5.0402367
  58.6779810  92.7764208   4.0915692  59.4697238  93.3122094   5.2650463
  78.7087427  17.1736175  53.8631069  77.8565212  17.5870544  54.0010273
  78.9519678  16.8332607  54.7240555  77.1889560  41.6802103  28.3221638
  76.2911210  41.3647921  28.4252941  77.5782009  41.5832312  29.1912567
  91.1695244  19.7767574  24.8024094  91.9249417  20.3644354  24.8169148
  91.5433826  18.9099914  24.6437180  74.3245752  12.9432709  30.1817143
  73.6998518  12.5705511  30.8038342  74.4478044  12.2570784  29.5258343
  40.5227709  47.9918766  83.4388733  41.0991573  47.2286272  83.4770679
  41.0447454  48.6645460  83.0015087  95.1369275  11.0524685  34.5833599
  95.5800964  10.7220060  35.3647816  94.8629297  11.9385416  34.8200810
 109.0703846  64.2840195  79.7849417 108.6219145  64.5977688  78.9996576
 108.9901419  65.0041342  80.4104233  71.9890039   3.5814220  23.3231175
  72.7487271   4.0682203  23.6426174  71.6919060   4.0755970  22.5590717
  12.6963282  55.4412603  89.1033554  13.4966695  55.8524704  89.4298363
  12.4316800  55.9868479  88.3627224  89.7851585 101.9796848  91.4920044
  90.6180333 101.6382504  91.8175411  89.8552225 101.9140434  90.5396366
  97.0509650  13.9078838  40.3423988  97.2935869  14.7328264  39.9218857
  97.8404857  13.6364300  40.8105957  24.5668484 105.6435092  22.5167095
  25.3851796 106.1397631  22.4993622  23.9063085 106.2803109  22.7894890
   0.5149654  40.8285410  12.0168411   0.9864095  40.1011545  11.6107857
   1.1867145  41.4925939  12.1718037  31.4317799  14.4807052  69.8144150
  31.3618202  14.0754318  70.6787539  31.3848437  13.7470722  69.2013788
  61.0199107  47.0463926  20.9325611  60.4732134  46.3297541  20.6104099
  60.5824019  47.3409922  21.7313301  22.6440814  52.3671514  31.3896382
  22.3511318  51.6923220  32.0020306  22.4038986  52.0284922  30.5271732
  28.2551336  80.1361179  88.1260586  28.6124110  79.2798042  88.3612347
  27.5538111  80.2853966  88.7601662  87.8861894  41.5619738   2.7529251
  87.7209927  40.6662065   3.0470955  88.5071541  41.4662439   2.0307934
  83.3615770  35.1538546  15.9392655  84.2874356  34.9346239  15.8345997
  83.3385219  35.7417566  16.6942990  32.2089119  94.3219788   8.7810242
  31.9281078  94.9271901   9.4673931  33.0533481  94.6656735   8.4894192
 109.7321464   8.7906534  17.5004780 109.9005391   8.3235628  16.6821205
 109.5290543   8.1010229  18.1324494 110.6573679  44.8869402  10.4768383
 110.0099065  45.5508024  10.2395451 110.1678898  44.0643579  10.4772389
  19.3592695  15.7645113  21.5654289  19.3112615  16.6747553  21.8576443
  19.7682050  15.8116276  20.7012665  37.2735286  54.7796631  74.1004419
  36.3386798  54.6562290  74.2649221  37.3171067  55.5473804  73.5304117
  13.9969924  19.3294794   0.3651154  13.6993364  19.4448978  -0.5372799
  14.9512151  19.2920334   0.2996361  20.9812644  35.0607187  31.8718826
  20.8078244  35.9826357  31.6815865  20.3889564  34.5810778  31.2927925
  77.3531322  33.2149107  14.0231621  77.6345036  33.8722689  13.3868134
  78.1195592  32.6541502  14.1430485 100.9244730  33.3123476   5.7934773
 101.5970089  33.4078390   5.1190865 100.5533554  34.1896421   5.8875572
  48.1640434  79.5646286  88.4560394  48.8782406  78.9450550  88.3067799
  47.3811102  79.0173721  88.5173893 106.4869024   6.9772560  16.2366974
 106.5061881   6.0531361  16.4854252 107.3639657   7.1517641  15.8953106
  92.2928788  24.5369274  61.7641365  91.4702071  24.1455919  61.4703667
  92.0272173  25.3229935  62.2413742  41.7923532  97.1480258  25.7903683
  41.7867426  96.1974986  25.6776917  41.4189456  97.2882731  26.6605007
  27.6999858  32.5976164  33.9035809  27.6709226  32.0331079  34.6760571
  26.9020227  32.3834307  33.4202492  70.2219494  23.5774452   2.7352059
  70.8131369  23.9196236   2.0646584  70.5198826  23.9856989   3.5481083
  22.2866634   7.6317055  34.9592697  21.7324212   6.8586475  34.8523342
  21.9736436   8.2447035  34.2940724  20.7160807 104.5583344  80.6311035
  21.4970732 104.2240524  80.1900387  20.0169182 104.4643211  79.9841356
 108.4730651  44.4310076  27.8451073 109.0874650  44.5457632  27.1201431
 109.0255167  44.2075235  28.5941612  81.3194265  20.2127296   4.3855488
  81.4205946  20.9092409   3.7368023  80.5290868  20.4501230   4.8705685
 110.1449134  31.8228990   1.6978180 110.5015589  32.6364500   2.0544254
 110.5206038  31.1353666   2.2477162  15.3891090  10.2596790  21.7982113
  15.1949886  11.0791284  22.2532379  16.0998443   9.8668796  22.3049557
   5.9062150  22.6365358  44.2540466   5.9141591  23.1857902  45.0379383
   6.4428619  23.1141502  43.6214935  55.6006766  74.2806346   4.4146263
  55.1531602  73.9095600   3.6541855  56.5304674  74.1348512   4.2400658
   1.7389229  33.0327780  45.6788075   1.7246583  32.4430830  44.9249565
   2.1213678  32.5107080  46.3840782  96.8330623  12.2463257  13.4545242
  97.4908997  11.8958122  14.0550434  96.0284568  11.7805225  13.6822712
 106.0077955  30.9119780  44.8114407 105.8199097  31.7048532  44.3091690
 106.0198404  31.2032492  45.7231724  19.6386388  41.1779673  17.9348194
  19.1526988  40.6861002  17.2728836  20.3029826  41.6558725  17.4383366
 109.5414315  45.8279896  83.9285183 108.5874210  45.9055710  83.9198017
 109.7539012  45.3927898  83.1028748  11.9407368  59.9644661  84.5157051
  11.6197467  60.8252430  84.7845268  12.8904903  60.0192451  84.6215343
  60.5987240  81.7796857  31.8706524  61.3060571  82.0520551  31.2860787
  59.9127436  82.4338729  31.7376053  53.6878635  11.0790760  16.5409672
  52.7980186  11.2834675  16.2535107  54.0812852  10.6234915  15.7967293
  66.1486508  25.3751213  18.2413017  66.3283177  26.1624653  17.7274525
  66.9865896  25.1601202  18.6510193  70.4638267  97.8376563   8.2995236
  70.9463049  97.1143944   7.8990948  69.8653532  97.4145539   8.9151871
  64.0813185  13.9137680  23.2072937  64.4935931  14.1472608  22.3755848
  63.4566607  13.2250387  22.9799568  15.0384334   3.1391889  12.0976269
  15.6006435   2.5023205  11.6565430  14.9505666   2.8037054  12.9897988
 106.5047906  67.6707506  69.9914074 106.7207746  67.9877186  69.1144133
 107.2821312  67.1861362  70.2691126  94.3401863   4.5962173  27.1538174
  94.5132865   4.2662985  28.0355370  94.7766175   5.4477007  27.1267235
 111.1359383  41.9981558  27.1145546 111.8715431  42.4469263  26.6977513
 110.3660394  42.3037798  26.6348850   1.5725906  97.9211807  87.0103550
   1.4262651  97.4068737  87.8042698   0.7637522  98.4200382  86.8956661
  88.9202251   6.5072996  29.2930901  88.0969562   6.0436804  29.4464409
  89.5800521   5.8153088  29.2483055  54.6927286  90.6319101   5.1520931
  54.2550946  91.2270577   5.7607853  55.0725759  91.2061341   4.4870960
  71.6845394 102.8053744  16.1412918  71.2610961 102.4113448  15.3786194
  72.3022700 103.4368546  15.7726776  92.7381112   5.5020124  18.0754864
  91.8542601   5.7092649  18.3789360  92.7419736   5.7613832  17.1541035
  32.8983974  96.0323143  89.1242027  32.3292255  95.2716351  89.0074062
  32.3110223  96.7277622  89.4201374  97.7013685  23.8841564  34.8153793
  98.3520533  23.4086735  35.3318607  97.7640869  24.7879011  35.1244843
   5.9807590  41.5379984   1.2638867   6.5534309  40.9164411   0.8144962
   6.5702680  42.0490057   1.8184864  10.1057485  26.3174993  18.3543598
   9.3798927  25.8489448  17.9422676  10.3797391  25.7492096  19.0742314
  40.5809433  30.7194518  74.0805435  40.3832231  31.5252399  73.6032057
  40.7043890  31.0020351  74.9867105  85.9318198  31.9711382  16.5559303
  85.3478010  31.9661982  15.7975590  85.7409503  32.7974302  16.9998371
  62.4956824  34.5929319  21.0076916  63.1442060  34.0691740  21.4781391
  62.9827930  34.9808008  20.2807057  91.3697507  25.7472450  21.4620983
  92.1832813  26.2511761  21.4834416  91.6514613  24.8435289  21.3200676
   6.8717578  32.3074133  54.4635689   7.0663884  32.9716379  53.8023770
   6.0000470  31.9870169  54.2318356 101.2062957  73.5982019   1.3565647
 101.9892265  73.3483869   1.8473255 100.5392529  72.9702074   1.6339028
  74.9255632  36.0305006  18.2085240  74.9407560  36.8144495  17.6595032
  75.4200495  35.3796465  17.7104199  46.9863466  22.9637892  12.0330536
  47.1926359  22.2138483  11.4751351  47.2122529  22.6740629  12.9169380
  79.0555643  11.8376667  38.7552273  79.7117908  11.9884760  39.4355690
  79.5490252  11.4639646  38.0251133  13.5764793   2.1392090  17.6197827
  13.9849332   1.3348514  17.2997772  12.7288631   1.8570501  17.9635441
  17.0767453  36.5214140  33.4411728  16.6952279  35.6717855  33.2202637
  16.6020587  36.8008692  34.2239868   9.0161804  42.7953703  42.2762596
   9.5064405  43.4689791  41.8049538   8.7031749  43.2356913  43.0664360
  23.9060739  24.1655857  10.5486786  23.5985854  23.2823879  10.7527363
  24.6608833  24.0300304   9.9758541  19.6715120  58.9075167   9.4373047
  20.2109245  58.2127935   9.0596497  19.0735439  59.1563684   8.7325012
  88.1007351  69.0418703  30.7126820  88.6077573  68.2394487  30.8362782
  87.2332133  68.8327581  31.0589611  39.7492078  18.6547405   6.2075627
  40.2261928  19.4465572   5.9590923  39.2514947  18.4193165   5.4245579
 109.1082479  56.3907701  25.6170094 109.1728260  57.0188887  26.3364041
 109.7270037  55.6978590  25.8477699   0.5831626  29.8491365  27.2614205
   0.3776029  30.5857355  26.6857540   0.6624296  29.0992433  26.6718304
  50.7722569  78.6625385  82.7343750  51.0629511  79.5702362  82.8227615
  50.9132767  78.2804537  83.6005974  20.8307842  46.1875708  10.2894127
  20.9334567  47.0607263  10.6679260  21.7208961  45.8378488  10.2489960
  10.3649572  35.6970770  20.0967991  10.3323510  35.0966532  20.8415615
   9.4559291  35.9674150  19.9671185  12.2852921  68.1431293  79.0048409
  12.9501331  67.5626707  79.3753624  12.5286877  68.2284641  78.0830431
 109.2119910  19.2272789  11.3825619 109.7394444  18.5293705  11.7710888
 109.0334250  18.9250690  10.4920494   2.6468662  39.2402632  21.1486160
   2.2215536  39.8603994  21.7408764   2.3497680  39.4997389  20.2764713
  84.1154383  50.1920414  71.8003035  84.5874451  49.4519758  72.1820641
  83.8950323  49.9042606  70.9143972  17.3831180  49.4464094  27.6227677
  16.9366411  50.2492315  27.3537552  16.7704871  48.7454969  27.3999893
  63.6049509  74.6942329  86.4960289  62.7162266  74.3986368  86.6935825
  64.0055704  73.9572191  86.0350037  13.9302972  13.3835871  31.0369312
  14.5153383  12.6306612  30.9528649  14.1338876  13.9309484  30.2785217
  75.0281430  17.9470157  90.6970310  75.0912929  16.9927024  90.6579018
  75.1858354  18.1599712  91.6168213  86.6008760  27.1981127  11.8799221
  85.7672228  27.6559908  11.9876206  86.8499245  26.9419844  12.7679646
  17.7112964  24.7139818   4.8852074  17.8667501  25.5550129   4.4553959
  17.9543927  24.8633892   5.7988846 102.4663188  31.2236578   7.1586430
 103.2834508  31.3751299   6.6836846 101.9590928  32.0241720   7.0239937
  96.5694048  21.8238813  51.3198578  97.1490313  21.8318970  52.0815670
  95.7553364  21.4372522  51.6424095 104.0025355  44.3712980   4.7294628
 104.7826459  44.6808512   4.2692005 104.0494277  43.4173853   4.6654904
  14.4515279  76.1557276  20.1029122  14.7514442  75.9328539  20.9841644
  15.1217988  75.7939989  19.5231640   5.9099010  43.1608183  11.2019264
   6.4275792  43.9290411  10.9609520   6.5377382  42.4382860  11.1986458
  63.5372114  85.3895855  90.1317120  62.9798603  85.6038284  89.3835926
  64.3476343  85.0629616  89.7408581   6.2197068  53.9808447  43.9861500
   7.0472005  53.5295374  43.8193905   6.4758018  54.8065645  44.3970501
  10.7172835  75.5838919  91.0741901  11.2047637  75.2674627  91.8347645
  10.9536314  74.9800873  90.3700638  82.4241640  39.6017630  19.8218071
  83.0150499  39.0024168  20.2777302  82.3459740  40.3537638  20.4088509
   5.0844646  85.2342033  76.6520739   5.8176029  85.1005936  76.0513353
   4.4611508  85.7641029  76.1551714   2.6134017   8.9063246  29.0644180
   2.5171283   8.6219294  28.1555283   1.7948511   9.3620045  29.2607891
 101.0330178  61.5803320  16.6416657 100.8903243  61.0702497  15.8443653
 101.8953420  61.9777853  16.5206062  99.7175862  50.3470594  33.5594856
 100.3144480  49.6218092  33.3751022  98.8538219  49.9382860  33.6146748
  29.4934324  13.2206184  35.8338940  29.5882180  12.7069027  35.0318062
  29.8513368  12.6591904  36.5215981 111.8393565   3.2975006  86.0167694
 112.7084876   3.4174823  86.3994598 111.9137765   2.4950694  85.5002403
  29.9581483  79.0289194  65.4316437  29.2587093  79.5070154  64.9861729
  29.5526555  78.7059290  66.2363064   3.3283919  73.4840775  81.1562157
   4.0716931  73.5480404  80.5565071   3.0413401  72.5736666  81.0856152
  99.6015217  35.7999212  24.8673641  99.9179222  36.6913492  24.7208035
  99.2453529  35.8152086  25.7557022   0.5266622  39.9679167  35.6115544
   1.0461214  40.5652792  35.0734532   0.0306538  39.4467432  34.9802220
  89.4267382  40.8104689   0.7602513  90.3065898  40.7138521   0.3958904
  88.8435818  40.5246908   0.0570500 108.5299168  87.1081924  69.6892357
 107.9006229  86.5261078  70.1151419 108.4629683  86.8936443  68.7587976
  91.7238177  26.3495714   3.0944168  91.8088700  25.8887464   3.9290726
  92.2687580  27.1300394   3.1951248  75.0515653  13.4727287  72.2192383
  75.0915314  12.5314140  72.0502567  75.9413005  13.7065982  72.4836445
  81.7523594  80.4219038  40.9778225  81.3315131  80.3301985  41.8326389
  82.5938071  80.8365042  41.1683666  77.8737975   3.8153648  87.0520592
  77.6854349   3.2984065  86.2687874  78.7687636   4.1291618  86.9224262
  14.1528323  38.7411291   1.4112484  13.6766961  39.5408518   1.1877072
  14.6433023  38.9673597   2.2014916  10.2197841  16.3234789  12.3894322
  10.6980136  16.4007456  13.2149994  10.8380559  15.9011490  11.7930996
  81.9093181   6.4867401  88.8464260  81.5027953   7.3480224  88.9421272
  81.2361241   5.9491634  88.4292316   2.7231792  52.0635206  12.6776516
   2.4836448  51.2055094  13.0278790   3.6637929  52.0004351  12.5118172
 101.5473653 103.0750115  55.0597965 100.7562924 102.7808411  55.5113423
 101.6359807 103.9954884  55.3069889  31.1943293  79.0925074  89.2520142
  31.8088770  79.0300608  89.9832249  31.7502308  79.1135263  88.4730625
 103.9899041  62.7010519  13.3476746 104.1505934  62.4752886  12.4314606
 104.8312046  63.0298502  13.6644280  50.3915119  70.1019573  89.4513702
  49.8904037  70.8513308  89.7731686  49.9855280  69.8849201  88.6121464
  30.1249957  82.9470730  89.0773678  30.9041190  82.5409031  89.4571400
  29.4371367  82.2896671  89.1817665   6.0709766  19.9200088  16.8103325
   6.1654952  20.0462562  15.8662235   6.7238477  19.2552549  17.0296395
  75.4710999  13.4960968  47.6685440  75.4137370  14.4460422  47.7712071
  75.5889521  13.3635313  46.7279160  27.2215915  84.8192596  84.4897938
  26.3341498  84.7347355  84.1411686  27.3220778  85.7549572  84.6647549
  98.8078787  49.9888689   0.9368908  98.2527115  49.2178327   1.0531819
  98.2539250  50.7244760   1.1981404 112.9775573  41.7044908  41.1794483
 112.5571777  40.9966928  40.6910526 112.2628738  42.3031408  41.3964379
 107.5172688   6.4348347  24.3442738 107.8780843   6.9743902  23.6407578
 107.0555212   7.0547802  24.9088013  23.7732339  79.6625614  65.8821392
  24.0581894  80.2055550  66.6171169  24.2731738  79.9900389  65.1344442
  10.8342078  32.5289709   5.3375828  11.0446027  31.9307215   6.0545647
  11.6792920  32.8924829   5.0731575  81.1104973  11.5105802  12.2715389
  80.5228110  11.9401342  11.6499722  81.9629975  11.5133459  11.8362629
  85.2107962  71.0332758  12.5547039  85.1114740  70.3173716  11.9271385
  85.5509676  71.7617208  12.0352089 112.0810487  62.6808817  20.5926716
 112.8529050  63.1596167  20.8947956 112.3486520  62.2977430  19.7573101
   8.6254695  17.6699907  23.2804024   8.3688978  17.8029997  22.3678791
   8.3671191  18.4788877  23.7221825  95.1686622  57.9783613  36.9527924
  95.7021929  58.7016088  36.6234123  94.5451369  58.3929140  37.5491154
   0.6957439  73.1928904  16.0080349   1.5751389  73.5459978  16.1429894
   0.8011773  72.2459490  16.0998261 103.3220412  49.4045908  37.3669731
 103.1062676  49.3321974  36.4372265 103.9013888  48.6618215  37.5369370
 102.7443434  17.5249559  18.9453327 102.6508452  18.3279926  19.4577992
 102.1174981  17.6237852  18.2287228  90.0519992  97.8202708   9.6666920
  90.4695464  98.4454567   9.0742218  90.0198985  97.0032961   9.1689503
  87.4270429  57.2651655   7.3802387  86.8403269  57.1986849   6.6268646
  88.2450511  56.8670160   7.0826351  12.4997938  34.6956038  91.6473389
  12.3215735  35.6013656  91.3942242  11.6897893  34.3990684  92.0622921
  81.8137265  99.4235165   4.7601616  81.3376332 100.0622304   5.2908241
  82.2890950  99.9517186   4.1188633  45.7520250  10.0949127  17.5440895
  45.9282831  10.7370741  18.2316887  45.6827501   9.2603952  18.0077850
 105.0876691  26.4288599  25.3688538 105.8575799  26.3201839  24.8105919
 104.5151307  27.0163042  24.8755753  29.9782422   1.3056833  35.1345265
  29.5772365   0.4399950  35.0570309  30.6313804   1.2059719  35.8271229
  16.8445876  30.6011755  10.7021534  17.7149967  30.4958708  10.3180611
  16.7905191  31.5313322  10.9215176  11.1350873  40.4955847  57.0306408
  11.1151889  40.1465113  56.1395847  10.4142001  40.0521452  57.4777519
  12.7579215  25.7377560  16.4760697  12.6906446  26.5275747  15.9395039
  12.3187879  25.9665806  17.2952377  92.6027550  59.0351850  56.2776863
  92.4432124  58.4897501  57.0479309  91.7368759  59.1603739  55.8893406
  93.6365976   6.4357836   2.8701889  92.9973139   5.8861191   3.3234226
  94.3818487   6.4800770   3.4692490   3.5901025  47.7121813   0.0894653
   4.3138507  48.0221636  -0.4548920   3.9640764  47.6418383   0.9677708
 107.1837975  26.4441759   5.7888615 107.2224166  25.9345371   6.5981877
 106.3025405  26.2881023   5.4493534  97.0311548  38.8918573  38.9418900
  96.8250014  38.0183012  39.2745030  96.8592693  39.4760591  39.6804058
   3.4305194   0.8623821  14.0527260   4.0785268   1.2049229  13.4371102
   2.6292899   1.3454897  13.8505566  16.3450244  19.9094850  18.7231266
  15.7148507  19.8315174  18.0068600  16.8523601  19.0986807  18.6851036
  52.1515156  32.6790697  26.8683827  51.3192822  32.6013548  26.4019215
  52.0377971  33.4415705  27.4357330   1.3405445  25.9302933  20.0070202
   1.4514807  26.3597853  20.8552277   1.2009671  25.0080425  20.2219689
  35.9306720  27.5775606   9.0130722  35.5393461  28.1912691   9.6347248
  35.2138713  27.3446257   8.4230148  13.0548385  50.1502497  39.8037159
  12.4956420  49.4181997  40.0637734  13.6816362  50.2396471  40.5216038
  26.0872176  58.9235861  15.0545036  26.3265518  58.7424261  15.9634220
  25.5356458  59.7043783  15.1031315  16.1895755  18.5142548  22.7631104
  16.0441879  17.9612762  21.9954407  15.6977609  18.0857021  23.4636032
  22.2671843 100.7519722  68.5230303  21.7733860 101.1348724  69.2481375
  22.8571343 101.4505005  68.2397461 104.0504886  18.4944136  15.3293812
 104.9904753  18.3312971  15.4071533 103.6482455  17.6322824  15.4350102
  15.2668765  25.3019697  41.0382855  15.3496602  25.4976446  40.1049626
  16.1622670  25.3495628  41.3733208  51.7958177  91.1139591   8.8890659
  52.5643063  91.5256627   9.2842400  51.2162901  90.9294040   9.6282017
  18.4161079  84.1072464  90.1669312  18.2528567  83.7927818  89.2777157
  17.8305173  83.5863590  90.7164669  29.3010688  52.8678942  90.3573036
  29.4754767  53.1245804  89.4517994  28.8543153  53.6236668  90.7386780
 111.3739903 101.1814117  89.7105408 110.6485747 101.4640713  89.1536713
 111.1670151 101.5396690  90.5737019   8.7178710  65.0734312  39.9842369
   9.3804315  65.0953371  40.6747257   9.0887216  64.4987375  39.3145954
 107.7935149  72.9463560   7.2493946 106.8858864  72.7369196   7.4697888
 107.7361013  73.4115488   6.4148056  49.7302605  21.8655300  91.2341881
  49.0598179  21.1878204  91.3205242  49.6844734  22.1321487  90.3160191
 111.8261720  30.1949961   3.2294953 112.0007993  29.9678022   4.1427910
 112.6925422  30.3374655   2.8482544  36.2986660  57.5713301  91.3015175
  37.2300363  57.6342106  91.5132236  36.0385966  56.7067623  91.6195107
   1.7501810  44.5346815  33.2634842   1.3217905  44.4791586  34.1176617
   2.6396611  44.8284895  33.4602749   7.2616294  51.6236860   1.3769924
   7.3212007  51.1597902   0.5418408   7.2114137  52.5482637   1.1343586
  96.7788054  70.3783018  25.2902424  95.8547093  70.3807527  25.5397808
  97.1396519  69.6003229  25.7154095  82.7999462  24.1303904   6.9772732
  83.0915524  25.0247271   6.8001759  81.8512215  24.1588575   6.8534100
   7.0821527  15.8856327  24.5643627   6.2159208  16.2824566  24.6560394
   7.6038602  16.5505583  24.1150009  42.9255295 103.2438564  86.8874645
  43.1909704 102.4365520  87.3279572  42.1632433 102.9926300  86.3659096
  34.5342401  36.0466082   4.7491467  33.6183122  35.9997160   4.4750797
  34.5208219  35.7971746   5.6731712  85.7902850  31.2382967  22.2441780
  85.9964039  30.3203661  22.4206459  85.9123732  31.6773016  23.0859673
 113.0866863  55.7302553  50.8059704 113.1586076  56.1476786  49.9475872
 112.9247905  56.4538080  51.4113533  12.0480573  86.1077976  72.9596615
  12.5143909  86.4666653  73.7146330  11.3758016  85.5424118  73.3399820
  73.6832762  94.3696499  88.6703968  74.0070868  95.2051353  89.0070534
  72.7352858  94.4120979  88.7958622  71.0668255   0.2092075  78.1598377
  71.5972925  -0.5522729  77.9253340  71.4560057   0.5309772  78.9730024
  90.8382584  55.0735456   1.6905987  90.1971270  54.3627817   1.6915047
  91.2642230  55.0129587   2.5456535   6.2995961  56.5285379   1.1011326
   5.5115274  56.8934042   0.6985676   6.7757371  57.2911436   1.4297020
  88.4390320  57.3674089  33.9075291  87.5246586  57.5352365  34.1355431
  88.6678673  58.0718691  33.3012306  96.3161017  78.4555227  10.7294762
  97.2380783  78.2181913  10.6301701  96.1781265  78.4894354  11.6760742
   9.4311670  40.3372175  19.2026436   8.7508920  40.8867533  19.5918286
  10.2507499  40.7829172  19.4168102  13.4203819  77.3599607  12.6162636
  13.5308460  78.1052000  13.2067215  12.4972108  77.1217615  12.7013409
  66.2712145  67.2159624  84.2162132  66.1276388  66.5018320  83.5952187
  65.6897688  67.0159817  84.9498081 106.9202424   5.8400058  83.5448742
 106.1922170   5.3849029  83.9680672 107.4336005   6.1966419  84.2697906
  80.7901288  51.0325527  88.2497120  80.9231473  51.0455226  87.3018932
  81.5192700  51.5436649  88.6009216  30.3011134  25.9889299  19.3424713
  30.6736234  25.2636606  19.8439228  29.6332982  26.3605196  19.9188149
  11.9598091 101.2485313  90.1784706  11.1619687 101.3789272  90.6909943
  12.6237249 101.0098743  90.8253765  75.2542304  62.2366983  20.6303322
  74.9318350  62.8873617  20.0066960  75.4322471  61.4617617  20.0973999
  75.2975658  30.8745939  11.5590012  76.0872565  30.3355963  11.5131867
  75.3234921  31.4055807  10.7629978 105.2658798  55.8153326  14.6153938
 105.5965401  55.6635363  15.5007469 105.5927231  55.0730020  14.1071045
  35.0466609  95.1793098  73.0644798  34.7583342  95.2095222  72.1522379
  35.7025981  95.8732033  73.1314564  50.8491553  26.0039806  91.1223221
  49.9768198  25.6142425  91.0643005  51.4429856  25.2551460  91.1756229
  42.1019745 102.2238159  79.2359972  42.1658754 102.6570320  80.0871563
  41.7056179 101.3741398  79.4288683 104.3165542  13.7113316   1.7486298
 103.9909722  13.0214769   1.1704170 103.5480835  14.2511398   1.9338047
  86.0320319  60.6447298  19.7909557  86.6979863  61.2057669  19.3935024
  86.3033547  60.5616457  20.7051289  99.7799708  42.5639231  22.9469120
  99.6154072  41.7542726  22.4635899  99.5492508  43.2607347  22.3325360
 111.4621569  54.1068727   0.7654774 111.3725521  54.0238172  -0.1838959
 112.3501803  53.8008863   0.9499180  82.5934792   4.7158050  82.8578091
  82.4089290   3.7890815  82.7049637  83.4809304   4.7273349  83.2163143
  87.6573016  66.5073187  11.3607704  87.7047612  67.4093325  11.6775334
  88.5710336  66.2388880  11.2644684  27.5217202  39.7789938  28.7989819
  26.6554836  40.1835901  28.7523853  27.4088052  38.9230043  28.3857453
  49.1480018  32.0922470  92.4805260  49.9866308  32.4643325  92.7534485
  49.3697465  31.2250137  92.1414566 107.2849776  25.2441961  42.9669106
 106.6071893  25.9184725  42.9201519 106.9993116  24.5739824  42.3460686
   6.0886195  19.9530680  14.1164314   5.4009298  19.5216019  13.6093342
   6.1041835  20.8504946  13.7838471  16.5253642   1.1515314  10.5576622
  17.3716548   0.7163221  10.6606972  15.9126094   0.4414827  10.3663647
 100.9153224   6.1751460  71.2453747 100.0549746   6.5356445  71.4600229
 100.7975102   5.7694625  70.3864384  60.2628660  94.0153408  77.3738813
  61.0354662  94.4915199  77.6781559  59.8479414  94.6077538  76.7468929
  71.2703507  52.6652319  10.4163372  71.9301807  52.3709280   9.7884571
  71.3137172  52.0254118  11.1269581 111.0195066  67.2007067  22.8065502
 111.4534809  66.8411142  22.0328629 111.5284349  66.8648893  23.5444176
  79.8415063  37.6073915  33.6486065  78.9923771  37.2168905  33.4419071
  79.6337907  38.5001070  33.9245426   3.8518480  27.8967363  55.2043831
   3.3357051  27.2833616  55.7274544   3.7512306  27.5874407  54.3041336
  66.0733678  69.6858389  27.1514904  66.7822494  70.2255995  26.8016731
  65.4204072  69.6652204  26.4518845   1.6561988  15.3447563   4.3195259
   0.9799054  15.7290251   3.7616741   1.3112763  15.4312307   5.2082264
  71.6771222  25.5579852  85.6316090  71.4011646  26.0558414  84.8620510
  70.8588339  25.2788734  86.0423851  93.5944392  73.3554632  35.7641995
  93.3338465  73.7816412  36.5807068  92.9303338  72.6805765  35.6237232
  25.6196693  74.0189726   5.8088886  26.1886743  73.6150057   6.4640724
  26.1025575  73.9334375   4.9868595   3.7820819  47.6851446  16.0044968
   4.5712760  48.1622297  15.7479870   4.1014770  46.9768316  16.5635121
  15.0125984  46.3578207   1.8303311  15.7339958  46.9849283   1.8809139
  14.8859838  46.0650999   2.7328407  35.0458053  66.1358816  18.1724369
  35.2167896  66.4024622  19.0757286  35.2890495  65.2104837  18.1456959
  40.3258705 104.0886879  83.7597942  39.3991661 104.2391109  83.9463902
  40.5375719 103.2833099  84.2317963  21.1771301  48.9244921  11.2866223
  21.6765502  49.1357977  10.4978478  21.1804965  49.7346289  11.7964375
 105.3698899   7.0937330   5.6826031 105.0964715   6.2561304   6.0566246
 105.8616783   7.5202686   6.3843453 104.8808719  50.1396353  41.7773544
 104.9055006  49.9025804  42.7044117 105.8008124  50.1805288  41.5160668
  41.7515350  71.0062737  12.2999108  41.3396353  70.5853708  11.5453159
  42.6748095  71.0803492  12.0584404  17.6402450  50.2861118  72.9838276
  17.6273239  49.7055387  72.2229099  18.0044305  51.1070156  72.6525974
  34.9236941  22.4341416  85.7633209  34.1453981  22.4745274  86.3190746
  34.7754192  21.6758990  85.1982403  26.2889875  69.6210332  34.6333801
  27.0932508  69.1860731  34.3501866  26.2986089  69.5446999  35.5874836
 108.6424018   4.0872687  78.0397224 107.8863458   3.7002501  78.4811163
 109.2369692   4.3283060  78.7500906   4.2004547  43.1051016  42.9495096
   3.5458103  42.4259233  42.7870607   3.7833378  43.9149857  42.6556826
  12.5658834  35.1003790  86.4451027  12.2943580  35.9890604  86.2154198
  13.4959435  35.1812053  86.6564941  45.2121973  19.6835160  87.6171875
  45.5043745  19.5833623  86.7111874  45.9815931  20.0124836  88.0819893
   2.9735202  65.4988718  79.7016668   2.1861741  65.0858259  80.0562286
   3.2846966  64.8876286  79.0339947 112.8015029  30.8407164  91.1290932
 112.2699825  31.5710616  90.8123684 113.5688257  31.2559772  91.5228081
  74.3387414  69.2757518   0.4990399  74.7599245  70.1352639   0.5077564
  74.7355963  68.8071008   1.2332737  59.9274231  66.0005887   9.9130928
  60.1429058  65.3469141   9.2478764  60.4674030  66.7582483   9.6881306
  47.6796722  47.2426176  83.6538029  48.0950212  47.9277039  84.1776085
  46.7810869  47.5480080  83.5292339  58.4445522 103.2546715  81.7124748
  59.2113671 103.7435222  82.0112228  58.8012502 102.5773919  81.1377621
  15.8259070  65.8116341  86.2348938  15.7238817  65.3422499  87.0628452
  15.0976646  65.5052042  85.6945324  44.5796085  73.9360197   9.2854225
  45.2896536  74.5776899   9.3034374  43.8884790  74.3285329   9.8188126
   3.6027086  24.3851471  81.3380146   3.7884879  24.0053797  80.4792404
   2.6497787  24.4727159  81.3601017  89.9478267  38.5313821  63.7776804
  89.7220181  39.3477225  63.3317757  90.7139133  38.2047176  63.3058405
 100.5320643   9.4707751  63.1702805 100.3976475   9.7816080  64.0655708
  99.6808432   9.1201556  62.9081345  94.6632789  20.6975937  88.9449406
  94.1756390  20.7766008  88.1250668  94.5513914  21.5464449  89.3729210
  41.9126795 102.0211442  16.0229122  41.1475930 102.0085986  16.5979969
  41.5999881 101.6451819  15.2000534  15.8591211   6.6595680  83.4293747
  15.5378902   5.7679290  83.5636234  15.1433861   7.2197539  83.7296200
  42.3300047  77.3816545  13.8475144  42.6831470  77.8670843  14.5930969
  41.3916860  77.3182328  14.0257561  81.0265158  38.7080526  67.4537659
  81.4797686  39.4857097  67.1281242  81.2239645  38.0283308  66.8093920
  11.9703400  17.2437763  83.9471626  11.5755498  16.4214242  84.2371750
  11.2542367  17.8780663  83.9803886   5.0733536  29.8256111  87.5740051
   5.2235323  30.7488227  87.7773666   5.9491122  29.4399452  87.5507450
  14.4515502  63.0414724  57.1640539  15.1296449  62.6532698  56.6111374
  14.8919129  63.7641144  57.6113844  65.3840257  40.4465122  13.2717049
  65.3445340  39.9274619  12.4684250  64.4921423  40.4198201  13.6182034
  18.1642258  72.1750116  87.9478455  18.6036086  72.9604769  87.6219273
  17.3459578  72.1354389  87.4527645  44.4924910  76.7899926  12.5244438
  43.7655891  77.0761259  13.0775940  44.0742464  76.3168914  11.8050873
  10.6814611  27.5400805  79.4619656  11.4591241  27.9674315  79.8209143
   9.9837983  27.7523923  80.0819874  24.2538762  52.2667456  81.8498707
  23.4712648  52.7878284  82.0293713  24.9772406  52.7992344  82.1806812
  46.8101025  12.7529824  88.6223030  47.1229410  12.8916419  87.7283573
  47.2585964  11.9587135  88.9125156  12.0943081  41.3380289  70.7607269
  11.8516159  41.4559555  71.6791105  12.4002826  42.2008467  70.4811573
  54.8703814  29.0060186  76.5876484  55.6302309  28.4310651  76.4966154
  54.1826963  28.5764837  76.0788965  20.6999148 102.8013213  31.6299164
  21.3569988 103.4805090  31.4776814  21.2023342 101.9878323  31.6751110
  44.7328717  36.0193629   3.1618988  43.9633501  36.3827570   3.6000836
  44.3914504  35.6444330   2.3500549 111.0599345  51.7097521  83.3031845
 111.9360049  51.3426304  83.4212971 111.1022851  52.1646738  82.4620628
  37.9914627  50.4803563  23.5967552  38.9101970  50.2795256  23.4183514
  37.5575281  50.3904895  22.7483093  48.5030174  44.9417543  84.5179749
  48.7336636  45.1567793  85.4217434  48.1959915  45.7685328  84.1459465
 107.4943463  32.6364875  77.5752401 107.9898064  32.8278804  76.7789268
 107.5769161  31.6894126  77.6868916  20.6908774  26.0333157  90.4474831
  20.0435686  25.6438923  91.0353374  21.2672782  25.3066874  90.2108383
  21.3605332  17.4306619  70.1800919  21.4066005  16.5768468  70.6103373
  20.6782770  17.3280239  69.5165968   1.3133238  39.8794341  67.1674204
   0.3959920  40.0022459  67.4116564   1.3236669  39.9823642  66.2158251
  32.9229140  21.3908696  87.3866940  32.5331807  20.5171585  87.3555946
  32.9213786  21.6208744  88.3158493  62.7504254 100.3615696  16.0948860
  63.5350729 100.5244620  15.5714142  62.6502562 101.1501725  16.6280949
  46.8008746  90.1019294  11.0527336  46.4666975  89.2430456  11.3113415
  46.1307008  90.4530652  10.4663860   5.9212500  52.1327114  87.4754906
   5.8953935  51.7668629  88.3596325   5.1216960  52.6547241  87.4088097
  83.8046421   1.2539608  11.9232380  84.3033506   0.7065136  11.3167488
  83.3598162   1.8891699  11.3621056  14.6932006  32.3765326  86.7596912
  14.6582854  32.7383614  85.8742046  13.8440800  31.9508624  86.8781471
  35.6517267  56.8159723  75.3419971  35.8485508  56.6674709  76.2668943
  36.4311314  57.2526455  74.9983692   0.2929644  19.6690762  88.9729500
   0.8533806  20.4140019  89.1903305   0.6803988  18.9320600  89.4451046
  85.5161045  91.3276983  80.4502773  86.2763879  91.8768979  80.6415367
  85.0187812  91.8248773  79.8008823  33.9028168  51.8900061  54.6744537
  33.2726216  52.4944353  54.2823410  34.2791462  52.3781681  55.4067850
   6.6303027  40.0114632  61.5664387   7.3450112  39.5312190  61.9845200
   7.0675993  40.6330252  60.9844923  60.9253717  94.5495207  47.3074543
  61.8614150  94.7490246  47.3234856  60.5338837  95.1893981  47.9020321
  32.2597677  53.9972268   8.6035835  31.6791857  54.6364821   9.0165054
  32.5558532  53.4417115   9.3246662  86.2717963  49.1289796  16.0676205
  87.1887875  49.1259230  16.3421166  86.3066865  49.0433202  15.1148998
  19.9549067  55.7507610  85.1042271  20.1819992  55.5790567  84.1903496
  20.7192969  55.4574871  85.6001377  21.8723297  29.1519690  80.1683807
  21.1513686  28.6207366  80.5063820  22.1461892  28.7030005  79.3685961
 113.0434998  30.5177021  71.5010214 112.7151948  31.1111283  70.8255291
 112.7294727  29.6537805  71.2340784 112.0567973   7.8507191  74.8320818
 111.8216892   7.8791982  73.9046431 112.6091452   7.0734137  74.9153900
  20.7068170 106.7816622   6.9205868  21.5583957 106.4808400   7.2376930
  20.2327431 105.9777195   6.7080700  16.0855532  20.7716751  89.2491722
  16.8958986  21.0564804  88.8267326  15.4139507  20.8783889  88.5755348
  86.0766194  95.8764387  75.9709406  85.1437566  95.9996164  75.7953691
  86.1405370  95.8603979  76.9258690  39.6402573  85.3382189  -0.0843418
  40.5472378  85.1009638   0.1088631  39.5310178  86.2051590   0.3064453
   8.9831544  78.1045921   2.5612843   9.5019365  77.3004134   2.5413811
   8.0822731  77.8054650   2.6844322  91.0768150  29.9364591  59.8090839
  91.0597180  29.3553233  59.0486765  91.7575453  29.5713162  60.3743315
  91.2331531  96.9823027  54.5524454  91.3440297  97.6408506  55.2381945
  90.3875194  97.1902955  54.1551065  21.2156749  19.8835957  74.6523142
  21.8039823  20.2627158  75.3053045  21.4418721  18.9536262  74.6373606
  12.0628834  26.4874554  74.3290329  12.7221417  27.0074391  73.8694382
  11.4706326  26.1878324  73.6393261   6.2268138  53.6343002  82.4394035
   6.3001478  52.7540493  82.0706081   6.9106126  53.6715221  83.1081772
  86.7377235   8.9334185  27.4305451  86.9568099   8.6202032  26.5529740
  86.2507762   8.2114632  27.8279030  55.6279815 102.8808053   2.7404415
  55.2865351 102.9969008   3.6271012  55.3001047 103.6387045   2.2563755
  35.0450444  38.2525229  19.1575623  34.6576524  38.5952377  19.9629855
  35.6706476  38.9248657  18.8877308  21.8611598  48.3732557  61.7696762
  22.1060824  47.6413441  61.2034988  21.2306809  48.8751221  61.2530899
  31.4792479  60.9321673   3.3207524  32.1249987  61.1479486   3.9935600
  31.9994379  60.6152685   2.5823700   2.5144437   2.8962833  30.6186783
   2.3039487   2.2691471  29.9268543   2.2172263   2.4730522  31.4241516
  87.6146950  23.5228283  14.3315708  86.9505431  22.9931528  14.7726833
  88.3762838  23.4824306  14.9100029  56.1936534  92.6985939   3.3461773
  57.1348084  92.6424129   3.1809437  56.0227514  93.6355622   3.4416592
  31.7104578  58.9310122  77.3957157  32.5649261  59.0979195  77.7935362
  31.0824156  59.0970612  78.0987263  81.1254968  14.6970541  24.6732151
  80.8566173  14.1257603  23.9538014  80.3554084  14.7477467  25.2394497
  67.8832789   9.0868360  -0.2040851  67.8278150   9.4453556   0.6817066
  68.8071044   8.8616306  -0.3139007  43.4608520  59.6644743  31.3288510
  43.4992809  58.7155725  31.4486038  43.4960092  59.7877951  30.3802788
  18.7357819  52.4474669  77.5204849  17.9641294  52.1213675  77.9835606
  19.4756830  52.0433092  77.9737329  85.2849723  96.2356932  24.5882237
  85.3177787  96.1589654  23.6346733  85.5888368  97.1255000  24.7675049
  19.8868597  40.1676083  89.1045856  19.1059804  40.3305721  89.6336460
  19.7619855  40.7040215  88.3217049  59.7091819 102.5677331  24.5626366
  59.7780252 101.7074664  24.1485989  58.9540125 102.9770787  24.1402828
  18.8966691  47.9267740  86.5081406  19.2965472  48.4476805  87.2045517
  19.6235001  47.7086926  85.9247112  92.2505141  83.1319411  17.0976555
  91.8990088  83.7471921  17.7411949  91.8784619  82.2859771  17.3469746
  22.5184954 103.8742001   1.4655220  22.7804113 103.9938719   0.5526650
  23.1894518 103.2993968   1.8338215  16.7098927  61.2026978  77.1327829
  17.0516622  61.9540405  76.6481113  17.4235511  60.5649137  77.1203375
  93.6050511  47.5735135   8.2861435  93.7182856  48.1577553   7.5364315
  93.8061190  48.1184466   9.0469658  31.2361002  44.3988752  56.5370226
  31.1605430  44.8399019  57.3831987  31.2936878  45.1110363  55.9000444
  11.5083052  89.6311076  45.7971489  12.3298837  89.3100698  46.1688721
  11.5643884  90.5831773  45.8786976  21.5049219  46.8535662  64.2072010
  21.5219092  47.1746254  63.3056116  21.6373587  47.6359129  64.7425747
  43.1993873  87.3209627  46.8381035  43.6144573  86.5722187  47.2662651
  43.8327498  87.6001866  46.1769497   4.2406368  48.3273745  83.5277176
   3.5323480  47.9983568  84.0811634   4.8324767  48.7715054  84.1349316
  24.2249907  67.3268063  24.5861065  23.3975602  66.8953724  24.7993099
  24.1897584  68.1589158  25.0578987  44.8637247  57.3561049  86.5903759
  45.2290630  56.7930794  85.9079075  44.1403484  57.8135014  86.1617184
 100.0478293  22.9932672   0.3652966 100.7001807  22.3333771   0.1303303
 100.4045488  23.8141519   0.0259983  72.4303223  89.8726280  17.1483051
  72.3393346  90.7790453  17.4421799  72.5528003  89.3707378  17.9541218
  87.7372672  21.9104893   0.8057034  88.5104157  22.2030336   1.2882912
  87.0086326  22.0576937   1.4087498  72.9142697  11.5784342  14.5483887
  73.3697061  10.9072191  14.0401852  72.1655639  11.8236048  14.0047276
  95.9400178  95.1847060   7.5907242  95.7149554  95.5167897   8.4597981
  96.6746760  94.5906050   7.7441895  92.5768317  11.1244900  15.9367764
  92.0045354  10.4694731  15.5372059  93.4206821  11.0026247  15.5016911
  36.4208749  44.6264440  34.6206009  36.1878780  45.5091268  34.9083912
  35.6871656  44.0807516  34.9036610  61.9127035  66.4274263  83.5895252
  62.5397921  66.5385342  84.3041229  61.9153738  67.2700119  83.1353474
  95.6868316  24.2443258  13.7382710  96.2016179  23.4385473  13.6940777
  96.1065032  24.7591669  14.4275009  65.1532245  82.7626474   6.8045437
  64.6324254  82.8354771   6.0047352  65.1626731  81.8256028   6.9997036
 101.1008025 100.3139908   5.8946430 101.4682675 100.7656987   5.1349270
 100.4691935  99.6974213   5.5243122  17.5653350  43.6562729  73.2437468
  16.9256163  43.9719057  72.6054955  17.2071517  43.9186954  74.0917301
  48.3584262  80.2881033   8.4732830  47.9005421  80.6799848   7.7296364
  47.8532065  79.5012958   8.6780274  10.4705787  64.7954321  76.9449091
  11.2585628  64.2595434  77.0351028   9.7494519  64.1663122  76.9652796
   1.9169930   5.7174665   6.9696343   2.3888448   5.2233869   7.6400673
   1.8744400   6.6092426   7.3148262  75.5687619 100.3055556  23.3432018
  75.7819105  99.3742306  23.2845699  76.3689137 100.7522566  23.0667221
  60.1088501  72.7101715  11.1574185  60.2139927  72.9735501  12.0716393
  59.8468781  73.5123737  10.7056725  26.3900185  80.8548069  90.0914574
  26.4275956  80.3770351  90.9200478  25.4602742  80.8673859  89.8641968
  95.2715518  24.6728498  47.5960076  94.9058284  24.0437252  46.9741738
  95.1415743  24.2660791  48.4526741  92.0908393  15.1930887   1.9017136
  91.7712964  15.9909088   2.3231423  91.4734604  15.0358135   1.1873257
  29.3174028  56.6005421  79.9295902  29.9074841  57.3531246  79.8889112
  29.7538805  55.9255838  79.4098330  96.8100534  53.0399704  76.2570190
  97.5096224  52.4248123  76.4770555  97.2059177  53.9038897  76.3717842
  89.4284321  61.0949213  26.9791424  90.3241660  61.1415846  26.6449082
  88.9870180  60.4775030  26.3958847  42.8509445  94.3973382  27.8900826
  43.7815435  94.4953759  28.0915939  42.8047372  94.4585879  26.9359696
   2.9764560  17.2921926   9.7424614   2.4159196  16.7681105  10.3146183
   3.4557441  16.6480572   9.2213070  47.4926955 100.2095683  28.4487545
  48.3783639 100.1447518  28.8060009  46.9410367  99.7681983  29.0945828
  66.5064956  93.0881531  20.1153576  66.5791798  92.5253685  19.3445027
  66.7734338  93.9537556  19.8059857  61.7169858  88.5144527  13.0095970
  60.9857035  88.4184272  12.3994839  61.8785406  89.4573171  13.0433285
  23.0662131  27.0621300  76.9558716  22.6559663  26.2443280  77.2371721
  22.3413444  27.6839423  76.8914604   4.3470451  73.5482597  83.6317253
   4.5842841  74.3805456  84.0406799   3.9138898  73.7974262  82.8153133
  48.2428850  96.6322453   8.6098015  48.5975362  97.4486048   8.9619457
  47.3795641  96.8718035   8.2728684  48.6341000  31.5416622  59.8963308
  49.3719769  32.1229362  60.0804234  48.5668898  31.5349579  58.9415169
  49.2997265  39.1105103  72.8295469  49.6220970  38.2099485  72.8655672
  48.3473969  39.0260410  72.8760004  10.1557350  40.0406218  85.1059628
  10.2184594  40.8329391  84.5725441  10.7525313  40.1967669  85.8378601
  96.9493558  34.4228441  14.6401322  97.7047946  33.9638788  15.0074112
  96.9156267  35.2505762  15.1196682  33.3018190  87.8542168  15.4604923
  34.0376771  88.2007105  15.9651577  33.6834092  87.1547515  14.9300491
  59.5626951  99.9418623  23.6599266  59.7910357 100.1210148  22.7477848
  59.9055196  99.0634568  23.8245594  44.4912243  35.9157848  87.9566383
  44.8863888  35.4357076  87.2288990  44.4089174  36.8134856  87.6347828
  97.8735568  36.1596662   1.6809475  97.0981409  36.2046225   1.1215317
  98.3063914  35.3450853   1.4253437  59.5499087  73.0228503  14.0353405
  58.7295962  73.1829436  14.5019066  60.2184344  73.0198319  14.7203934
  39.6777916  27.2671175  71.8558311  39.3515682  28.0571890  71.4250183
  40.5167913  27.5297928  72.2344017  33.7716889  54.9150467  81.7354870
  33.1287527  54.4301891  82.2529602  34.6080470  54.4965792  81.9394875
  40.1549768  38.2025743  70.5664206  40.0655317  38.3191180  71.5122795
  40.7136822  38.9280224  70.2874851   7.0034462  93.1728077  90.7401276
   6.1460859  92.7772141  90.5830383   7.3828650  93.2765484  89.8674774
  18.3093655  28.1033182  79.1013670  17.5132799  28.6240458  79.2077684
  18.7477887  28.1598258  79.9503851  31.8657303  24.5062542  75.4129314
  30.9374857  24.7287512  75.4842710  32.1578407  24.4040847  76.3187218
 111.3094427  24.7375042  10.2059281 111.8168666  24.0330679   9.8028004
 111.1943890  24.4599754  11.1147606  30.5248690  31.1715579  75.4803419
  30.5624270  31.8544555  74.8106575  31.1990786  31.4192295  76.1130571
  74.9452329  86.2014706  22.5469029  74.9004389  85.3489931  22.9799187
  75.5061103  86.7295320  23.1150543 105.2035038  49.7678471  89.9445915
 104.3133120  49.6175957  89.6264553 105.6527017  50.1867819  89.2104626
 102.4658750  71.5768385  66.1065769 102.0416866  71.3690281  66.9391108
 102.1954797  72.4754238  65.9177303  48.2248128  93.5665448  15.9839451
  49.1005171  93.5458405  15.5980122  47.9274190  92.6572783  15.9519684
  21.0619068  66.1262321  44.9765015  21.4585328  66.5409231  45.7426262
  20.1199961  66.2401152  45.1032400  54.8883808 106.5089448  20.8066475
  54.4886041 106.3613493  19.9495423  54.2267967 106.2157424  21.4332020
  91.0951281 105.3227074   7.2625649  91.9561482 105.1818926   7.6563275
  90.6539822 104.4769986   7.3425305  84.2414405   3.8538105  27.2750199
  84.2426510   3.0128843  26.8177712  84.1308428   3.6245520  28.1977570
   7.8729266  45.9142065  75.7938194   8.1303537  45.0150537  75.9975147
   7.1279693  45.8213711  75.1999760  36.1981797  30.7004976  90.5290794
  36.2061906  30.1295114  89.7608757  35.5736470  31.3912439  90.3075886
  12.9942560  72.2277737  90.2928448  12.2248638  72.1326542  89.7313976
  13.4902763  72.9458952  89.8997879  59.6837807  36.1981702  75.5737877
  58.8192129  35.8482385  75.7889748  59.6084309  36.4786220  74.6617031
  10.9105861  33.6216092  65.5669498  11.3847578  32.8601408  65.9009552
  10.7632017  34.1691661  66.3381100  22.7295947  31.2563419  74.7646856
  22.7663374  32.2072792  74.8676395  23.5943937  30.9520388  75.0399208
   2.7942431  29.1776633  88.8706398   3.5464340  29.3461990  88.3031559
   3.0614915  29.5100260  89.7275734   6.7658287  35.4503727  61.6880941
   5.8201993  35.3974557  61.5494680   7.1195209  34.6957469  61.2172699
  90.4394032   6.7078764   1.7002690  90.7115008   5.7921822   1.6394531
  91.0596301   7.1794683   1.1442578  81.3668038   9.9517996  28.4323227
  81.7344846  10.2122480  29.2768490  80.4210539  10.0503570  28.5422146
  46.3549293  90.8433421  49.8503792  45.8663119  90.1028759  50.2098190
  47.2682262  90.6552346  50.0665676  59.2240120  82.6788623  25.0322544
  59.0609599  83.6215074  25.0648987  60.1553775  82.5897558  25.2343762
  40.5585123  93.3944399  18.2838165  39.9550619  92.7481420  17.9172432
  40.0131147  93.9334471  18.8567459  89.0740027  14.8041756  32.0980656
  89.4503130  15.3908426  31.4419853  88.7825956  15.3856689  32.8003323
  56.2233400  33.8181186  71.7539978  55.7678652  34.1706467  70.9894705
  55.5296087  33.4337378  72.2899246  86.1496163  79.2918046   6.1591923
  85.7100821  79.2958004   7.0095074  87.0812226  79.2343099   6.3713944
  80.0450800  18.4605104  26.3515389  79.3466340  18.1364948  25.7828438
  80.0497888  19.4071085  26.2095654  53.7842894  32.7883220  87.3935699
  54.0798473  32.2016025  88.0897236  52.8916502  32.5012064  87.2012329
  84.9900653  10.3402168  36.6810906  84.4855078  10.8840544  37.2859776
  85.8815755  10.6842882  36.7363655   6.3651788  75.3830671  65.1920271
   5.4515696  75.1352501  65.0501204   6.8680292  74.7421646  64.6894121
 103.7263487  18.4802437  66.9470882 103.1898926  19.2238176  67.2219419
 103.2437943  18.0939293  66.2162399  92.6659407  34.7949583  31.3807785
  93.4554090  34.4326765  31.7829334  91.9470407  34.4463427  31.9079220
   1.4721574  56.0716486  84.1512775   1.6105747  55.1910734  83.8024807
   2.1229288  56.6118431  83.7030411  26.9191969  90.0714333  13.2727825
  25.9796179  90.0232751  13.0964195  27.2800661  89.2841275  12.8651631
   4.4638875  64.9906397  72.5409985   4.9638537  64.4089890  73.1136703
   5.0642622  65.7106924  72.3478508  90.3898551  11.4399559   1.8879997
  91.0854210  11.1064560   2.4547398  89.7388460  11.7966062   2.4923336
  51.7661870  89.1917856  11.6880333  51.6340030  88.6047227  10.9436428
  52.6313258  88.9596303  12.0254814  13.4760189  58.3926916  60.2223015
  13.2246244  59.2640066  59.9159718  13.7158191  57.9187918  59.4259691
   4.5418361   4.6494514  25.4443752   3.7584737   4.2015106  25.7636273
   5.2258447   4.4110138  26.0700810 109.7426583   5.3894216  16.8761265
 109.4537999   5.7349665  17.7207482 109.3626382   4.5119125  16.8337261
  83.4220792  70.8916850  37.8398525  83.3249379  70.8595796  36.8881333
  82.6088286  70.5154355  38.1764424   9.4396547   2.4650747  16.6266834
   9.1281608   1.6772253  16.1811554  10.0419524   2.1396286  17.2956764
  37.4608782  96.0835345  35.9570038  38.3564693  96.2968047  35.6949627
  37.3244980  96.5758402  36.7664826  25.8735514  57.8216600  61.9096184
  25.9476328  56.8709898  61.9930649  26.7699456  58.1189823  61.7537022
  39.0706856  79.9229939   7.3842251  39.7594322  79.6608789   7.9950821
  39.5347367  80.1216490   6.5709412 102.2401939  44.7909403  89.2824650
 102.8576408  45.5201912  89.2260265 101.3883029  45.1830006  89.0906239
 108.6009433  10.7495529   0.6606018 109.1346838  10.0198204   0.9749901
 108.3599068  10.5027420  -0.2322758  83.2363749  85.6575711  37.4654591
  82.8973485  85.0678189  38.1388676  82.5628568  85.6568630  36.7853081
  76.0303273  16.5101845  18.4961903  75.2054680  16.0246784  18.5072338
  76.6405578  15.9567196  18.9835560  84.6961452   6.2201244  55.0658524
  84.6130355   5.4140884  55.5753815  84.7771318   6.9115240  55.7228386
  86.3305165  14.3438179  15.8126461  85.5913629  13.9623911  15.3389465
  86.0389044  14.3785412  16.7236817  99.6193077  15.5477602   9.7081387
  98.8496329  15.0759680  10.0263321  99.3670537  15.8588964   8.8387787
 103.4359123  30.9401972   1.6913426 103.5718061  29.9932463   1.6590130
 104.2202903  31.3087446   1.2849533  79.0684979   1.0684282  33.4554016
  78.7638916   0.7514173  32.6051342  79.6099343   0.3565676  33.7964832
  59.7343636  88.6679013   4.1493427  59.1746188  89.3143780   4.5794403
  59.4617797  87.8293808   4.5219242 106.0782860  37.8246880  87.1815968
 106.7193322  38.1580472  86.5537739 106.2857567  38.2774663  87.9990196
  40.8258438  76.4407396  86.9297886  41.4323568  76.1725855  86.2395191
  41.3909817  76.7084789  87.6544762  91.5400924  38.7598020   5.1245129
  91.5629973  39.6759016   5.4010594  90.8973314  38.3507044   5.7039368
  57.1282864  95.5254490  14.5620835  56.8788768  95.4925663  13.6385357
  56.7243493  96.3285716  14.8908150 111.7664738  39.6896362  67.4256325
 111.8713351  38.9806533  66.7911434 111.4715856  39.2538142  68.2252169
 104.8981570  47.5024891  91.6639137 105.0841056  48.2813835  91.1395264
 105.1139234  46.7689514  91.0880661   8.5123402  49.2518234  91.8076420
   8.5745919  49.6772528  92.6628399   7.6539874  49.5114470  91.4728928
 111.1257045  37.7529383  80.7017994 111.4996819  37.9414964  81.5625095
 110.3656398  37.2012138  80.8865547  86.1694289  85.8305390  37.1068108
  85.2441598  85.9706671  36.9056332  86.1640550  85.2361710  37.8570950
  40.0103162  97.1869595  35.4063713  40.6207911  97.5997002  34.7954762
  40.0987493  97.6946242  36.2130272  36.1810543 101.5739806  11.2605107
  35.7006300 101.4416535  12.0777714  35.6886659 102.2538979  10.8006298
  34.0602493  43.8704872  67.0983410  33.2416964  43.3784485  67.0342922
  34.1217422  44.3422508  66.2677431  58.8817287  65.9070129  12.3587238
  59.4642807  65.7819314  11.6095745  58.1070233  66.3325102  11.9912827
   5.1983446  47.8403711  86.4272881   5.8070803  48.1974077  87.0739651
   4.3831718  48.3197165  86.5754604  63.2114888  94.2566474   4.3365204
  63.9684583  94.8331864   4.2324364  63.5860611  93.4128363   4.5893204
  99.0534021   2.5585777   7.2869789  98.8155557   3.4674150   7.1034825
  99.2717220   2.1905739   6.4307415   5.9725398  46.0794115  82.9111290
   5.0485086  46.2598419  83.0838776   6.4331532  46.8501854  83.2427502
  87.7012445   7.9480202   2.0110237  87.1729459   7.9485208   1.2128174
  88.4601881   7.4059660   1.7955887  36.6054016  91.9664056  20.1926148
  37.0058727  91.2258656  20.6480896  35.9822265  91.5660698  19.5862972
  37.9824305  34.1491485  49.4471121  37.9572654  34.6595049  48.6377096
  38.2884884  34.7674084  50.1106787  85.5419827 105.1203187  13.2830727
  86.4526893 104.9327357  13.5103428  85.1323033 105.3604634  14.1141712
  60.7690645  82.7823145  21.3019859  60.0042988  83.3517988  21.3859665
  60.6551219  82.1254332  21.9888317  21.5731192  54.5404100  60.5796957
  20.9037971  53.9801502  60.9725618  21.0826206  55.1453972  60.0232458
  57.1313454  93.9081986   0.1885140  56.3330413  94.3318493   0.5038941
  57.7084721  94.6331723  -0.0514305  24.2568541  60.1927423  88.6344910
  24.3828058  59.6899080  87.8297997  23.3463359  60.4852438  88.5941029
  41.1334095  74.5213444  46.0540878  41.9979120  74.9287756  46.1076367
  40.5625565  75.1040871  46.5548527  13.3510089  60.1321602  87.7076817
  14.0917575  59.5678329  87.4861908  13.5528350  60.4592752  88.5843182
  81.7634059  71.9237621  12.4771797  82.4781800  71.3669963  12.7859604
  81.6554309  72.5791545  13.1664097  96.7918946   6.2090904  14.9515259
  97.4760653   5.5471165  15.0512135  96.2066580   5.8501179  14.2845452
  67.3341394 105.9317048   7.0987808  66.8422032 105.6668980   7.8760254
  67.0232702 106.8168242   6.9086182  83.7068082  63.9514263  12.9289734
  83.7070371  63.5223098  13.7846005  84.4082452  64.6002264  12.9862320
 101.3703571  33.7934136  92.7222824 101.2447308  34.7349238  92.6039219
 101.4029680  33.4423900  91.8323612  35.1188896  86.3079221  30.6131375
  36.0052494  86.0656030  30.3450405  34.7726504  85.5213029  31.0345471
  63.8976526  60.2250433  87.1494293  63.8345718  60.0851822  88.0942535
  63.6211729  59.3931007  86.7651653   9.1348460  40.7468779  14.0902722
   9.1661599  40.3122789  13.2379925  10.0064328  41.1278994  14.1969978
  14.0330517  57.8850412  79.1892815  14.2189622  58.7471008  79.5614576
  14.7557747  57.3337364  79.4892263  47.0369274  70.4690535  19.1151726
  47.8375746  70.8701344  18.7770474  46.5971155  70.1213558  18.3393490
 101.6552279 104.6753243  88.3686256 101.6482732 105.4618690  88.9140892
 102.5782654 104.4269367  88.3182621  34.2868642  58.2140286  16.4155495
  33.7233964  58.7363721  16.9864189  34.7134078  57.5915856  17.0044911
  77.7888633  50.3633500   8.9767754  77.5580645  51.1154441   8.4315025
  77.0003367  50.1891292   9.4906819  39.9362586  89.7899730   3.4388649
  39.2285887  90.4052026   3.2467091  40.6568454  90.3413970   3.7436974
  52.1863175  69.9520071   3.5127556  51.9869507  69.0361388   3.7068474
  53.0380619  69.9245448   3.0768501  71.2051831  12.0008213  28.1239617
  70.3149553  11.6575033  28.0474198  71.7665638  11.2287933  28.0528271
 103.3053447  35.1684648  10.1552021 102.3831488  35.3254778  10.3580105
 103.5790564  35.9454901   9.6678078 112.3173871  30.2256799  82.1619320
 113.0008797  30.7393265  82.5923252 111.4993106  30.5592322  82.5303459
  18.6621857 104.4984324  21.1386788  19.0772463 104.8533328  20.3525459
  17.7507735 104.7846444  21.0783112  34.9070692  41.1464262  87.6244450
  34.4219732  40.3655958  87.8913116  35.5670738  41.2635422  88.3077526
  23.7243247  80.2695370  90.8911037  23.0340648  79.6218252  91.0333824
  23.5876322  80.9203911  91.5795231  46.4910711  94.5497687   6.9458115
  46.4879764  95.3590758   6.4346802  46.9929982  94.7649033   7.7319538
  22.4982119   3.7120560  85.7506084  23.0375695   3.2719666  86.4076042
  22.1307063   4.4674966  86.2093925 102.6853682   1.4350683   9.2208874
 103.3796360   1.4973337   8.5648739 102.9738523   2.0094377   9.9301922
 102.3142718  26.4591074  85.4506111 103.0797945  26.3368249  84.8891354
 101.7191063  26.9985247  84.9300003  46.5667201  79.9899442  18.7376034
  45.7092954  80.2019961  19.1065037  46.7259509  80.6775291  18.0909931
  15.3023374  42.9645777  78.6300993  14.3576479  43.1129646  78.6722231
  15.6875741  43.7839890  78.9405727  14.1995490  25.2732229  89.4434547
  13.4939587  24.7992897  89.0032768  14.0885627  26.1819148  89.1638279
  15.1191807  39.9472642  64.8533487  14.9992549  39.0930223  64.4384766
  14.6962667  39.8601270  65.7076216  23.1408095  58.6997271  76.7435360
  23.1930995  57.9621220  77.3513460  22.3687768  58.5150576  76.2086582
  53.8432647  49.6667604  12.6909649  53.7723614  50.6144990  12.8049671
  53.1188477  49.3089272  13.2041943  39.5344567  24.4885588  72.2945786
  39.8424840  24.5050025  73.2007122  39.5203686  25.4082632  72.0296669
  22.4693465  23.6854982  68.8034058  21.8528724  23.6866498  68.0711555
  21.9389963  23.9251208  69.5633698  29.6519208  16.0660481  74.9735069
  30.4224682  16.3144827  74.4628525  29.2487001  15.3588665  74.4699812
  55.1546027  12.6803953   5.2013409  55.1765825  11.8869860   4.6663201
  54.5817115  13.2777340   4.7204888  44.8346622 105.1112349   4.9841225
  44.2908663 105.8639367   5.2163994  44.2522384 104.3572886   5.0767529
  13.7372124  49.1154337  64.5760441  14.0252733  49.4521570  63.7275934
  12.8444946  48.8069439  64.4207335  50.9393311  66.1658521  -0.0393379
  51.3553882  65.3038032  -0.0396908  50.9685410  66.4455183   0.8756268
  35.8538500  95.8974249  47.9812634  35.5191264  95.2473385  47.3635399
  35.0753490  96.3682253  48.2787811  66.8586994  76.4095480   5.3730976
  66.8790961  75.5159051   5.7154667  66.2859822  76.3598020   4.6077454
   8.1224960  53.7001324  84.3950272   8.2137078  54.4224072  85.0164986
   8.5088390  52.9479647  84.8435974  21.1276556  59.1993542   0.5337536
  21.3734675  59.9059321   1.1308777  21.2907470  59.5560468  -0.3394020
  42.3306751  42.4007845  61.7625427  41.3831806  42.2701550  61.7248964
  42.4811268  42.8204775  62.6095724  16.3890270  22.8387196  23.8015949
  16.3149694  23.3956701  23.0266487  17.0970443  23.2315571  24.3121063
 112.2398726  58.7268829  88.4611893 112.5232901  57.9785252  87.9359627
 111.4865126  58.4018993  88.9542103  21.6014767  39.3859506  83.1027985
  21.8965840  38.4782362  83.0307102  22.4080896  39.8937821  83.1906319
  57.8315068  81.8860610  15.8424580  58.4292746  81.4220221  16.4286053
  57.5762785  81.2309058  15.1929485 111.3394380  56.0033512  87.5092030
 111.3608843  55.5789566  88.3669090 112.0964414  55.6450844  87.0457077
  64.9845792  80.1575859   7.5327885  65.5899812  79.8238213   8.1948483
  64.6406031  79.3731148   7.1055710  64.0536834  91.2751110   2.5777352
  63.1738807  91.6387160   2.4778759  64.1718222  91.1902745   3.5238278
  67.3435760  87.6988251  10.8117592  66.3884497  87.7527149  10.8443749
  67.6043654  87.5199993  11.7152226  61.3582325  45.4084015  88.9913464
  61.2210655  44.7380257  89.6606827  62.3094511  45.4656649  88.9011097
  71.8698669 101.2610657   3.8292229  71.3142253 101.9093592   4.2618954
  72.5188971 101.0220654   4.4909393  40.2894497  65.0828838  88.5342407
  39.6282220  65.7590580  88.3865929  40.9377146  65.5014420  89.1006279
  26.6112426  45.4039843  10.7240307  27.1389774  46.1891062  10.5780518
  27.0650295  44.7163469  10.2367317  88.3434058  94.4091160  25.9089958
  87.5103856  94.1323550  26.2907135  88.9538670  94.4168694  26.6462338
  14.9853996   6.0788233  19.6925461  14.1885951   5.6436378  19.3893253
  14.6772388   6.7325813  20.3201306 106.6461350  12.6153452   2.7813160
 106.9715716  11.9834883   2.1401608 105.9290506  13.0637390   2.3330319
   6.2106994  29.5878298  26.9706356   5.6383279  29.9653513  27.6385510
   7.0797447  29.5882685  27.3718750 105.8707978   8.2838041  26.0819733
 105.8430506   9.0283138  26.6829407 105.4257895   8.5954267  25.2938759
  91.1568118  74.1158993   6.3161099  90.6323005  74.8511560   5.9990608
  91.8824960  74.0539415   5.6950009  19.7519735  16.7643482   1.6471970
  18.9690402  16.3855869   2.0469296  20.4799226  16.3823683   2.1375191
  43.0141783  42.5363588  78.1947994  43.5518789  41.8259716  78.5447502
  42.1862793  42.1169758  77.9604244 104.6466614  28.5111029   6.8203079
 104.1787101  28.2524950   7.6142704 104.3929960  27.8571016   6.1690247
   8.2132733  92.7566528  69.2638493   8.3167815  92.6563931  70.2101374
   9.0052354  93.2154179  68.9835548  92.1108006  47.3269749  91.9559193
  92.5801872  46.4934444  91.9223118  92.3735212  47.7822208  91.1559391
  46.3504268  89.8288710   5.6580460  46.9460852  89.2733605   5.1552212
  46.8699116  90.1204188   6.4072907  15.7478908  12.8583652  13.8389218
  14.9207786  12.5907499  14.2395413  16.0477021  12.0815784  13.3667481
  83.3378859  12.6675445  11.0403359  84.0837897  12.5717480  11.6325199
  83.6886414  12.4512035  10.1763928  28.0762858  76.0041888  24.8579037
  28.4816063  76.0468562  23.9918053  27.9832549  75.0677378  25.0329411
  44.8206377  90.2264977  91.5482712  44.2600965  89.9366570  92.2680092
  45.5791283  89.6438122  91.5858173  99.0076496   6.2572843  11.5883934
  99.2593290   5.6200487  10.9199440  99.1187836   7.1074182  11.1627686
  51.0162080  31.4340495  88.5806656  50.1897169  31.1906337  88.1636620
  51.6851009  30.9748840  88.0727386 112.4864675  20.7828552  29.3035423
 111.6863181  20.4377682  28.9074242 112.4126293  21.7320520  29.2045509
 100.0360680 100.4439051   0.8897888 100.7890559  99.9607070   0.5495369
  99.7723294  99.9574168   1.6708100  33.1898355  82.2506905  89.0332317
  33.0521941  81.8589592  88.1707764  34.1120982  82.0837879  89.2276764
  25.3655198  15.0950272  38.0222618  24.6996120  14.7285873  38.6040795
  24.9346116  15.1493771  37.1692669  92.1039309  29.9849588  22.8844273
  92.7346815  29.8607046  22.1752369  91.9827725  30.9331686  22.9338085
  15.7871842  72.6261139  86.7799664  16.2580717  73.2266665  86.2021828
  15.5930698  71.8672562  86.2298012  21.5107348  83.9229186   1.6273987
  22.3258784  83.4469802   1.7863094  21.2876990  83.7193472   0.7190716
  22.6497033   9.6215040   3.5921204  23.3187249   9.9654419   4.1840279
  21.9178489  10.2325947   3.6769116  43.7225819  70.4278851  89.4567585
  43.4444427  69.6955442  90.0068092  43.5536051  71.2051058  89.9893093
  24.7255874  91.6781235  82.4323082  25.4342222  91.7912388  83.0657673
  24.8007512  92.4349880  81.8511581  17.4242166  14.5486767   0.6942761
  16.9065145  14.5306236   1.4991963  17.0420650  15.2595217   0.1796066
 108.0970837  41.7797262  26.8283569 107.5289060  41.3856966  27.4902832
 108.0947353  42.7140886  27.0361912  70.5015660  74.1944296  17.3562252
  69.6630765  73.7333806  17.3317635  70.5045224  74.7284634  16.5618527
   5.0568918   7.9047567  14.3539822   4.4478277   7.3459322  14.8366749
   5.8571389   7.8964073  14.8791229  81.0223056  99.2024167  12.6756203
  81.5006162  98.3847268  12.8128636  80.3616143  99.2125638  13.3681595
  16.7642438  49.6326399  87.4789143  16.8895197  50.5742931  87.3613358
  16.2548363  49.3615818  86.7152023  21.1302090  73.5277462  77.1768141
  20.4002500  72.9248476  77.0357227  21.6891956  73.0822372  77.8134346
   8.7923092  59.7489595  90.2691555   8.7638944  60.6068134  89.8454666
   9.3240911  59.2100620  89.6834660  22.1200275  61.4090157  87.4580765
  22.6314616  61.4975595  86.6538143  21.3839841  62.0096922  87.3412037
  58.5333896 101.8117983   8.5061657  58.8730431 101.3434584   7.7435982
  57.5821186 101.7416794   8.4261715 102.2543241  34.7217447  24.0346825
 102.4126293  34.1207392  24.7626602 101.3351394  34.9724943  24.1266453
 104.4625283  93.0579646  41.7977535 105.2414132  93.6044676  41.9021523
 103.9790774  93.4648402  41.0787499  15.8575261  86.8614864  84.2365170
  16.5692759  87.5011444  84.2584133  15.2400625  87.2121048  83.5946083
  -0.2529427  52.4918920  16.4988434  -0.3995821  52.9292280  17.3375809
   0.6560949  52.6951391  16.2784588   8.0219224  39.8174555   0.6868088
   7.6389364  39.8318178  -0.1903141   8.9227536  40.1150877   0.5597222
  84.5515575   1.2221176  26.4308083  84.0908606   1.1021454  27.2612202
  85.0745286   0.4267771  26.3299572  66.6518736  87.9334641  75.5071735
  67.4256039  88.4354210  75.7633257  66.3871336  88.3125114  74.6690416
   5.3196386  15.9938604  13.5996639   5.0327400  15.0833446  13.5297882
   4.5948365  16.4404518  14.0372193  17.0165160  21.6101868   1.3031971
  16.8082670  21.3519270   0.4053318  17.9307178  21.3520319   1.4207565
  87.2753836  41.1110002  10.3070461  87.3584332  41.5369017   9.4538510
  87.1614482  40.1831037  10.1014721  50.8542646 103.6634524  14.4505512
  50.9300876 103.3902152  15.3647911  49.9120320 103.6794264  14.2827046
  23.5546279  48.6248875  67.1290636  24.1203427  49.3164158  67.4725533
  22.8280282  49.0923929  66.7170906 101.9572260  24.9707300  11.4903080
 102.1163155  24.1432173  11.0362827 102.2901537  24.8258478  12.3759758
   2.2247694  62.3747110  90.1922131   2.5324783  63.0144787  89.5501518
   1.2795296  62.5180721  90.2391243  38.9928675  48.2312155  91.0839653
  39.2222953  47.5960588  91.7623234  38.1896281  47.8859043  90.6943512
  11.6994107  94.3862820  91.2953091  10.8841753  94.2064190  91.7635727
  11.6410244  95.3121948  91.0597134  84.1263624  34.6741182   0.2281487
  84.6458121  34.3239290  -0.4955757  83.9243050  33.9108164   0.7692444
  99.5436288  97.6948388  20.6175530  99.9222756  97.1685870  19.9133408
  98.6686421  97.9220135  20.3028690  40.4637057  84.2274673  12.4781906
  41.3218851  83.8035877  12.4688828  40.6333739  85.1042755  12.8226578
   0.9725931  -0.0222939   5.2805817   1.4308241   0.8064110   5.1409256
   0.4029682  -0.1127117   4.5166504 112.0878567  55.5306339  80.9821033
 112.3516833  56.3394928  81.4207077 112.9119470  55.1219845  80.7173157
  87.3055317  21.4254553  18.6952507  86.8877961  20.7362635  19.2117226
  88.1485714  21.0532123  18.4364998  43.0542946  43.1169224  69.1493177
  42.3320150  43.7373638  69.0513372  43.5487604  43.4418583  69.9017525
  36.4794445  48.7277651  85.4534340  36.8957400  48.3512211  86.2287712
  35.6510663  48.2549715  85.3728962   6.3073665  60.9971714  81.1629295
   6.2644935  61.2254477  82.0915222   7.0317769  60.3744221  81.1025810
  16.1886108  84.7698593  86.3718033  15.3643250  84.4960213  86.7740536
  15.9500158  85.5147076  85.8199787  65.1716972  93.8284953  11.6458714
  64.8420215  93.3710368  10.8723843  65.4708172  93.1299455  12.2279274
 106.9813468  10.1213533  11.8547833 107.6769664  10.4633934  12.4163448
 107.1296264   9.1758472  11.8387425  16.4283442  86.3099766  80.4843998
  17.1082103  85.7601738  80.0948715  16.0718369  85.7806778  81.1978245
  25.5180788  36.0352349  74.3667555  26.3227534  35.7269931  73.9499569
  25.2905536  36.8323088  73.8880730  59.5690775  65.2441311  86.2913418
  60.1528692  65.0532627  87.0254993  58.6900425  65.2067852  86.6683483
  45.9413303  94.7219594   2.1774590  46.3754303  95.1649268   1.4483750
  46.6553355  94.3226035   2.6743900  61.3269902   3.0922222  91.2923527
  61.8313313   3.2718467  92.0858288  60.4999543   2.7306461  91.6109371
  61.6927719  47.9072046  89.7451305  62.5808001  48.1729031  89.9839783
  61.7865705  47.0045900  89.4406319  40.2743387  55.2774143  81.6875172
  40.9938812  55.5919075  82.2348690  40.5924320  54.4502640  81.3257599
  34.7053671  73.0981970  86.2618065  33.9910126  72.4905634  86.4533997
  35.3404379  72.9498053  86.9624424 102.9299452  25.1510221  30.3224289
 103.8098790  25.3101570  29.9809277 102.3533608  25.2838880  29.5700180
  31.0208848  16.7862780  18.1897461  31.2202743  16.6025240  17.2717583
  30.1383880  17.1566517  18.1736672  76.1375285   0.5379390  69.3745422
  76.3682485   1.0542392  70.1468325  75.9868074   1.1878871  68.6881924
  32.6236248  64.7061872  86.4095402  32.5291276  64.8006296  87.3573685
  33.2197857  63.9652252  86.3009262  97.6858543  55.6286860  78.0458546
  96.7503928  55.4393625  78.1186724  97.7654789  56.5463495  78.3062077
 101.1039354  56.0415155   1.0492623 100.9153392  56.1517317   1.9812023
 101.5517594  55.1973612   0.9937203  50.6822634  51.8155193  88.1771183
  51.0694790  51.4707136  87.3725033  49.7592735  51.5674925  88.1241512
 104.8662497   5.8631975   9.9008095 104.8178078   6.6522724  10.4404843
 104.0320946   5.8422167   9.4317925   2.6425651  21.3774950  10.3928864
   2.3992065  20.7285244   9.7327053   2.7920965  22.1812088   9.8949730
  75.1771665 102.2632201   7.5114071  74.8899413 103.1548579   7.7081692
  75.7633711 102.3605330   6.7609894  32.3472857  72.2377157  82.6461506
  33.2619572  71.9568586  82.6730442  32.2971582  72.9516268  83.2818031
  87.3801245  28.6260588  51.8058312  87.6807274  29.4017679  51.3324082
  86.5834691  28.3592779  51.3471329   9.4389451  99.6608448  87.4698067
   9.2739707  98.8911152  86.9252682  10.2581954 100.0223541  87.1316242
   4.7351363  26.7095167  11.3119423   5.0224450  26.9699938  10.4368221
   4.0031818  27.2944529  11.5077221 105.0591613   2.0754225  16.8392861
 104.7137095   2.2661240  15.9672081 105.5605747   1.2678368  16.7269623
   4.0774539  23.4618074  56.3789189   4.7800926  23.4163696  55.7304871
   4.4695667  23.1177504  57.1814835  14.7634125  92.0334911  70.9977293
  13.8804221  91.7072773  70.8241034  15.3139627  91.5892506  70.3529215
   0.5431321  10.9251339   2.9921353   1.2836364  10.9752781   2.3876774
  -0.0286099  11.6469986   2.7308762  12.7811861  62.5876141  73.9102221
  13.2357538  62.0943022  74.5930386  13.2475674  62.3663664  73.1041384
  22.5534487 104.6128654  78.5393333  21.8615198 104.9440575  77.9668140
  23.3647251 104.7973728  78.0660295  96.7733838   3.6196501  38.5638821
  97.4597599   3.3098680  37.9729855  97.2398164   4.1289551  39.2266667
  13.2881641  64.6418190  69.3781281  13.5999310  65.0783110  70.1709127
  12.5586116  65.1836777  69.0775061  99.7339703  24.9000627  45.9791577
  99.5410945  23.9817316  46.1680901 100.6521966  24.9012405  45.7088101
 102.2569730   9.4962294   1.8945133 102.1415068   8.6794693   1.4089119
 101.3892318   9.6882326   2.2500240 112.8780700  21.1193783  11.2453282
 112.4601866  21.5169651  10.4814350 112.5278784  20.2289898  11.2735951
   8.6681989  59.7903425  30.6639206   9.4309428  59.6076662  31.2126362
   8.9883283  60.4084284  30.0068772  73.3255697  75.1619632  33.7034905
  73.3311702  75.3350170  32.7620804  74.1600920  74.7242744  33.8715183
  69.9528433  93.2976325  30.1454365  69.6458078  94.0792687  30.6047928
  69.8979617  93.5278351  29.2179501  96.2774469  15.8561880  24.6860230
  95.5535104  16.4689047  24.5566857  96.9024612  16.0745556  23.9947140
   7.6563075  22.9669029  26.9723618   7.9390720  22.3675281  27.6630413
   8.1986049  23.7461311  27.0946324  64.2305423 103.4957535   0.6083214
  63.7767340 104.3384535   0.5965626  63.6130548 102.8855450   0.2050984
  38.2468534  65.3981209  92.3570824  37.3895001  65.3498507  92.7799797
  38.2107759  64.7364902  91.6663074  29.3071699  76.6957283  60.7300091
  28.8571620  76.1762810  60.0637531  28.7820435  77.4922323  60.8078051
 109.8677708  18.3364231   0.7475960 109.6540024  18.5475523  -0.1612270
 109.1560604  18.7236816   1.2572300  33.4231380  15.2068216  16.3379872
  34.1623691  15.8103783  16.4120876  33.6394409  14.6542580  15.5869114
  64.3029513  23.3466942  19.0267574  64.9931146  23.8743765  19.4285690
  64.2921080  23.6239845  18.1106579  13.1759787  27.9365420  81.0678768
  12.8893292  27.5754571  81.9067287  13.2948470  28.8710690  81.2374592
 112.4020602  40.5885965  18.3393585 112.8066398  40.9658224  19.1205418
 112.9030849  39.7903902  18.1718361   8.8300088   3.5227901  33.4726822
   8.2973197   3.8853199  34.1805279   8.5340408   3.9857895  32.6889336
  91.9289281  26.3537914   0.2646458  92.2138359  25.5579693  -0.1844871
  91.8223919  26.0882265   1.1780750 112.7787711  29.5348627  30.1148808
 111.8755652  29.3507940  30.3728878 112.6980473  30.0662023  29.3227970
  92.5267150  42.8005106  27.0867455  92.5060929  43.7550527  27.0185196
  93.3827450  42.6061041  27.4683869  35.3689218  86.4638996  86.3583660
  34.4542289  86.4106464  86.6353798  35.4932880  85.7003975  85.7946110
  43.1179077 103.1857474   5.5772125  42.3498169 102.7499278   5.2079880
  43.0252243 103.0736096   6.5232956  58.7956811  98.4403451   8.8736069
  58.6019660  99.0072234   9.6201718  57.9821063  97.9599364   8.7201988
   1.8400029  22.7750475  25.8536732   1.9170860  23.3483297  25.0910294
   2.5237134  22.1169073  25.7286656  26.9482732  49.0902615  74.5132637
  27.8871608  49.1980600  74.6652603  26.5753055  49.9523735  74.6973419
  55.3519487  80.7219315  81.4991760  56.1830997  80.4554939  81.8921566
  55.1274061  81.5388870  81.9445896  17.2998643  70.5386353  74.6137857
  17.0330811  69.7021008  74.9949312  17.6663876  70.3069878  73.7604189
   4.3191913  35.6536848   5.2600681   5.0021079  34.9943048   5.3828442
   3.5919431  35.1742823   4.8631870   4.8500338  72.3252487  75.5035830
   5.3998578  71.6724205  75.0702906   4.7685087  72.0102835  76.4037943
  39.3127298  99.7280693  71.4419222  40.0879383  99.7858334  70.8833981
  38.5807228  99.9221039  70.8564758   3.6261246  50.7532310  80.6345081
   4.3279016  50.9938717  80.0296593   3.1509775  50.0547743  80.1843643
  37.3172593  64.7146463  88.4301281  37.3170900  64.0895081  89.1549969
  37.5237489  64.1868639  87.6587391 107.8241740  68.3917761  89.6904945
 108.0458479  69.2046165  89.2361927 108.2294230  67.7040100  89.1623020
   2.3578647  42.4378950  13.3615029   3.2123521  42.6386053  13.7433350
   1.8597940  43.2506639  13.4484780   7.0608904  92.6734407  22.1661102
   7.8333571  92.9839785  21.6937840   7.3887255  92.4410660  23.0348789
  25.3421569  79.4579077  75.4300356  25.7398415  78.6768723  75.8148289
  25.0463128  79.9712038  76.1818552  27.0280027  41.6810465  74.4680357
  26.4224553  42.0459032  75.1133442  27.3813915  40.8967447  74.8878193
   0.4740001  76.6261323  16.9299519   1.2856079  76.1253245  16.8480122
  -0.1808809  75.9795458  17.1931755  32.2618079  31.5222430  64.2763996
  32.1877813  30.5681181  64.2963219  31.5771079  31.8029737  63.6692715
 105.8985518  34.7607088  78.4213209 106.5500812  34.1806364  78.0272961
 105.7606487  35.4455471  77.7669477  19.6869567  28.4437258   7.8360378
  20.1323703  27.8637297   7.2184288  18.8649705  28.6707384   7.4012577
 109.2808987  18.6181480  37.7822506 109.7202326  18.3390076  36.9789421
 108.3502127  18.6185247  37.5585186   5.2643541  18.9662392   9.7169220
   4.3344739  18.7608940   9.8138249   5.7087138  18.3403904  10.2888405
  95.8941366  24.1211063  19.8494732  96.6614129  23.8657600  19.3373024
  95.9030678  23.5322458  20.6040585 105.3776099  34.7314913  53.1097710
 105.7873441  35.0066263  52.2896206 105.4757239  33.7793714  53.1189167
  18.1454599  68.4318924  88.5911655  18.2825983  67.6988506  89.1912270
  18.6418986  69.1535282  88.9772129  35.5757049   9.4564230   0.6974899
  36.1560062   8.9703781   0.1116192  35.2268365   8.7934334   1.2932789
  30.8991742  58.2409334  86.0379410  31.0274220  58.3291054  85.0934792
  31.7854142  58.2182121  86.3989067 105.8455373  34.4254476  15.6619656
 105.2787115  34.0284426  16.3232720 105.2966406  35.0880892  15.2426159
   7.0588416  99.2068005  72.7498436   6.4094400  98.6502457  72.3200178
   6.5567988  99.7085381  73.3920670   2.7561262  73.5314417  89.2038155
   2.8784731  72.6622295  89.5855618   3.5346311  74.0212107  89.4689274
   5.4876137  70.4109907  86.3434792   6.4216620  70.2284050  86.4457035
   5.3312629  70.3395987  85.4018402  81.3155461 103.6290104   7.9133904
  81.0785056 102.7438624   8.1900894  81.1891032 103.6252816   6.9645798
 102.8848267  77.3078115  31.2046730 103.7587643  77.0326097  30.9276688
 102.5048114  76.5275962  31.6085064  81.4417744 104.2136700  18.1582272
  81.5670920 104.9952681  17.6200497  80.5725480 103.8935788  17.9169380
   4.7619814  80.7214355  80.3677464   5.6960243  80.9244061  80.3167820
   4.3268898  81.5174198  80.0622272  63.5046291  84.8437309  79.7486830
  63.3969021  83.9168167  79.5354605  64.4523764  84.9714470  79.7898579
  89.7267199 101.7939742  13.2424271  89.5925094 102.4055369  12.5183975
  89.7595979 100.9328969  12.8256523  61.7195989  86.9366272   0.1364624
  62.0606161  87.2936614  -0.6835735  61.2959267  87.6809485   0.5639183
  79.3975020  96.1992486  18.9080918  78.4545279  96.3535388  18.9648640
  79.7528935  96.5920479  19.7053635  51.7350150  93.9954884  18.9584839
  51.9055630  93.3037074  19.5976936  50.8705104  94.3318636  19.1945183
  69.2169739 103.1666977   9.0704548  69.1644812 102.2128184   9.1303456
  68.3456827 103.4709389   9.3244660  59.9589872  72.2756147  92.0868969
  59.8602486  72.1002769  93.0227089  60.4120207  73.1178999  92.0475197
  84.3651177   6.0467321  11.7596829  84.1207220   6.5983087  11.0165417
  84.9578835   5.3933365  11.3882839  10.6675533   9.0509922  10.4429066
  10.3978875   8.1614572  10.6714546  10.1742366   9.6120245  11.0413277
  33.3683658  75.7118988  77.2464561  32.6270628  75.5420351  77.8277016
  33.3458424  74.9941683  76.6135406  75.2523113 103.4369118   1.8764984
  74.6275211 103.8147290   1.2575352  75.4381538 102.5652916   1.5272629
  77.1761609  54.7567574   7.5099766  76.4025403  54.3169356   7.8625309
  77.2490502  55.5613389   8.0233586  19.0396416  21.3487148  92.7093601
  18.2780206  21.7007518  92.2486687  19.1569400  20.4721165  92.3432350
  85.5508472  20.1814873   9.9401676  85.4742147  21.1195118   9.7656071
  85.5989148  19.7795803   9.0727627  85.9544803  93.6602957  22.3617851
  86.6597892  93.5296042  22.9955685  86.4006139  93.7287314  21.5176785
  39.5006871  60.4299831  85.3023911  38.9296389  60.0019836  84.6644688
  40.3634405  60.4324675  84.8878002  42.2851882 104.0314515  38.1987869
  42.3781619 104.9651463  38.3879864  41.3408605 103.8957055  38.1209957
  68.9417507  11.5388901   2.7149021  69.4082911  11.4765436   1.8814194
  68.1530042  12.0413715   2.5108730  74.3474607  19.4281275   5.0378716
  73.9898519  19.7314341   4.2033875  73.8699889  19.9289495   5.6992542
  70.8288670  89.3714046  78.2234192  69.8952675  89.5664692  78.1423426
  71.0200644  89.4974613  79.1528225  93.4098400  27.7433092   4.9044144
  93.1919600  27.5866205   5.8232224  92.9121174  28.5267527   4.6704781
  37.5836423  18.3771307   3.4421837  37.6623681  18.4259636   2.4894821
  36.6604617  18.1765444   3.5962593  96.8412878  29.1317446  48.0463516
  97.3029067  28.9571459  47.2262013  96.2035133  28.4215815  48.1181061
  99.1076471  42.5591833  18.3942425  98.3315088  42.0158846  18.5308659
  99.6428968  42.0611650  17.7764141  25.6648544  23.3113415  20.9343064
  24.8870996  23.4691841  20.3991329  25.4134038  23.5973675  21.8124783
  59.1714192 105.4381163   2.4539959  59.8609353 105.4456027   3.1178772
  58.7327338 104.5958359   2.5737869  27.6283216  61.3910389  81.8873119
  27.8637147  61.3463163  80.9605885  28.2723451  61.9871807  82.2695160
  28.8054609  34.3139911  83.6794662  27.9452825  34.7291994  83.7420940
  29.2406893  34.7719550  82.9603767  88.2676650 101.0940774  23.9648449
  87.6534367 101.8090088  23.7980282  88.9620543 101.4924271  24.4896042
  96.6355111  21.2474043  19.0625202  96.9306828  20.7343943  19.8147976
  96.7767598  20.6725342  18.3103192  90.6448068   4.6476442  28.0805027
  91.3229217   4.7883207  28.7412560  90.1946236   3.8522274  28.3648884
  23.6177278  81.0057068  88.1795406  23.5478210  80.4373932  88.9465904
  23.0933523  81.7747784  88.4026814  62.8237391  98.9065821  32.0536911
  63.1709910  99.4041379  32.7940190  62.3717428  99.5584281  31.5179360
 105.7268097  10.0462515  21.1132443 105.7912137  10.9984762  21.1863911
 105.1945736   9.9015839  20.3309166  24.2065859  75.9263992  81.8861580
  24.5304799  75.3612900  81.1847496  23.7372971  75.3340054  82.4735832
  22.3737764  93.3475590  84.0225601  23.0764437  93.6831951  84.5791912
  22.5732613  93.6911201  83.1517029  90.5978967 100.1447709  15.3365624
  91.3689757 100.6951697  15.4734432  90.0386191 100.6569941  14.7525513
  67.3981071  86.1669118   4.6234238  66.6799117  85.9095747   4.0453159
  67.5835944  85.3820164   5.1389515 105.8855201  94.6569998  11.9955265
 106.0592986  93.7160714  12.0215809 106.2936021  94.9534972  11.1820137
  10.1613143   1.1634714   3.5393822  10.1722625   0.6870539   4.3695271
  10.6999067   0.6333811   2.9518902  94.8850371  20.5419905  22.8776943
  94.1463114  20.6753523  23.4716046  95.5805637  20.1930887  23.4351360
  86.4664664   9.1248638   8.5856354  86.8275012   9.6958429   9.2637646
  87.0847429   8.3961040   8.5320007  43.7668348 100.0770218  35.5250752
  43.4643871 100.9816868  35.6046784  44.3307502  99.9450715  36.2871945
  36.7345428  46.8124914  87.2236156  36.9098210  47.0285463  88.1394863
  36.6149449  45.8627987  87.2202110  61.2592913   0.0284767  73.5339880
  60.6731320  -0.5230332  73.0158377  61.0555840   0.9215736  73.2562876
  14.3392089   4.4041473  30.1394188  14.8300746   4.4975740  30.9558499
  14.8000863   4.9667961  29.5171272  27.1076822  50.1801872  85.1042938
  27.3910904  49.8974895  84.2348194  26.2051249  50.4731131  84.9785423
  33.9425588 100.7100964  86.6111851  33.0925941 100.6169701  87.0414448
  34.5402002 100.1874161  87.1458530  31.9890976  87.6792908  88.2337379
  32.3287058  86.8228245  88.4932804  32.6882529  88.2927132  88.4598351
  28.6354926  27.3518927  21.3291466  28.5830692  28.2562429  21.6384041
  27.7268270  27.1041281  21.1583435  96.1408450  32.4715502   5.4003822
  96.6853263  31.9367773   4.8226368  96.5377094  33.3419020   5.3656113
  18.7029552  84.9646568  70.4966974  18.1700957  84.2415524  70.8274746
  18.0872929  85.6911945  70.4000759  36.9419765  47.3746777  81.9651127
  36.5622115  47.6495361  82.7996635  36.5065598  47.9223490  81.3118839
  84.7140278  63.7810213  28.2100498  85.3584923  64.4855863  28.2770168
  85.1298596  63.1288702  27.6461136 102.3554756  51.4992220  25.0998699
 101.8882896  50.7188303  24.8016178 101.9190647  51.7421896  25.9164154
  23.6326316  55.9334547  19.4281399  23.4465316  55.3662569  18.6798870
  23.9602187  55.3393728  20.1033985  47.3221257  35.3731710   4.2342102
  46.3975576  35.5072290   4.0258038  47.7353624  35.1984865   3.3886540
 108.4009196  40.9345228   0.8440506 107.8456666  40.2013189   0.5788242
 108.8719823  40.6124670   1.6125595  20.4809764  19.8523933  20.6524956
  21.2045482  19.2317230  20.7387650  20.4541162  20.0606567  19.7186100
  17.8303444  63.0330801  88.7390518  18.7280452  63.0273104  89.0712166
  17.6925147  62.1463537  88.4059525   6.5230039  15.1056463  21.2853443
   5.8997777  15.2814180  21.9902718   6.0218385  14.6044666  20.6420052
  95.9535027  86.1452579  87.3494530  96.6633701  86.0357189  86.7167473
  95.3590298  86.7715359  86.9363976  21.5420890  78.8896418  87.8993607
  20.8175468  78.4024906  87.5069904  21.1542702  79.7237015  88.1642532
  24.5043233  10.9109909   5.2784264  25.1788572  10.8338100   4.6036827
  24.9920944  11.0546429   6.0893929 109.4013716  26.2451822  31.1491787
 109.8229529  25.3897840  31.0667336 110.1278044  26.8640692  31.2233555
 111.0739614   2.7446014   2.5153839 111.9232370   2.9942591   2.1511948
 110.9260012   3.3675558   3.2269013   1.8046072  41.6182691  30.1483547
   0.8582452  41.7014963  30.2654183   2.1095947  42.5160582  30.0172436
   3.3372310  73.2041246  22.7830612   4.1702274  72.7399427  22.7001106
   3.3966497  73.9180929  22.1482765   7.6064876  39.1987211  12.2222531
   7.2772268  39.8656542  11.6197312   7.3980811  38.3672506  11.7962849
  34.1558003  94.0339279  55.8719444  34.7906637  93.8789845  55.1725340
  34.2127538  93.2541561  56.4241695  81.3725806 105.7061131  20.5861485
  81.2170649 105.4542191  19.6758759  81.6013862 104.8870881  21.0255634
  38.6333323  85.7755566  79.6128178  37.7881908  86.0911179  79.2928410
  39.1693091  86.5646744  79.6919060   5.8964208  63.0175383  32.2561276
   6.6084436  63.4674055  31.8013012   6.0104087  62.0953161  32.0264637
  28.6987022  43.8776285  62.5391686  29.4589666  44.3499262  62.8785240
  29.0711740  43.1425077  62.0522415  12.6920295  43.1006384  79.4239712
  11.9828928  43.2993126  78.8125086  12.3214960  42.4460268  80.0159359
 106.8419838  81.9423008  87.6870918 106.5358543  81.6769409  88.5543346
 107.2379017  82.8026772  87.8257465  96.0910846  34.8835451   6.5086090
  95.3132106  35.0851995   5.9885323  95.9932043  35.4119760   7.3007118
  18.4646228  20.7855160  13.8654339  17.8663495  20.1373894  13.4936344
  17.9217342  21.2955076  14.4666111   7.6588058  65.7734299  89.3735981
   8.6112201  65.7881308  89.4680595   7.5080532  65.3388739  88.5341549
  53.0195045  45.1984930  82.8193188  53.8561440  44.7370863  82.8774071
  52.7326870  45.2896833  83.7279797  32.5713658  85.9049797  91.2408257
  33.1552625  85.8936214  90.4824257  32.5840092  86.8143845  91.5392399
 110.0473715  10.5452520  28.6086380 109.7461726  10.1230223  29.4131481
 109.5010235  10.1661379  27.9201519  97.2794201  10.7711298   2.8942883
  96.4882518  11.2895853   2.7476990  97.9976179  11.3950521   2.7886879
  40.9082222 104.3152428  76.1570787  40.6488371 103.8241196  75.3774977
  40.1123857 104.7732925  76.4273930  35.8768702  96.3055420  88.7503433
  35.8064175  96.0685539  87.8256226  34.9790883  96.5053844  89.0154552
  40.5482769  95.9142876  91.1662579  39.6551824  96.0702610  90.8592129
  40.9606552  96.7779827  91.1522198  71.6809440 105.5599577  13.1472885
  71.5204502 105.5702860  12.2036945  70.8169318 105.4226763  13.5357010
  36.9060636 106.2757206  83.0370617  37.5941133 106.9134712  83.2270336
  36.7749023 106.3395309  82.0910454 102.2858097  34.8402197  15.8042252
 101.5526320  35.4535562  15.7541477 103.0532099  35.3652079  15.5767929
  12.1876815  32.2002489  10.9478485  12.3724368  32.8115827  11.6608536
  11.8331817  31.4248640  11.3829815  19.0636829   5.8650810   7.1639073
  19.9509242   6.2172634   7.0931542  18.8490728   5.5765564   6.2768185
  47.0856333  89.3380356  72.1613646  47.2145653  89.9414062  71.4295483
  47.9695559  89.0592194  72.4004889  80.6435593  41.0083372   9.5098793
  81.4861782  41.3935644   9.7503388  80.7228489  40.0865442   9.7553551
  81.1721380  38.9100820   3.3328449  80.2614595  39.0598852   3.0789673
  81.5688397  39.7811872   3.3268749  47.7075429  17.8014087  89.2414474
  46.9722868  17.2858238  88.9100838  47.9977525  17.3302459  90.0224876
   7.2109395  95.9594250  76.8685961   6.5400302  96.5781593  77.1571827
   7.2491556  95.3050041  77.5660992 111.9166948   8.5653192   0.2734482
 112.2072603   8.6418325   1.1822617 110.9949209   8.3152515   0.3369438
  15.8777765  30.0002558  15.6264984  15.3460172  30.6815035  15.2149498
  16.1384109  30.3753454  16.4676964  27.5418857  14.2019684  27.5941193
  26.7744067  13.6820204  27.8325951  27.2799352  14.6644384  26.7980492
  60.2334932   3.8969738   0.5899250  59.8088983   4.3428499   1.3228237
  60.4148725   4.5932323  -0.0413883  86.4022268  39.5300180  22.8486740
  87.2858276  39.1699964  22.7720940  86.3464464  39.8374636  23.7534439
   9.2054990  20.2988750  24.6724426   9.5469192  20.7899744  23.9251244
   8.4839490  20.8347542  25.0017273 106.5669848  12.3236305  34.6985447
 106.8948747  13.2228834  34.6906578 105.6613757  12.4015219  34.9986088
 108.3044030  15.5641586  17.4893868 108.3415343  15.8670074  16.5821182
 107.4235250  15.2020676  17.5851547  92.6899125  26.3875467   7.3726380
  92.0213403  26.3739092   8.0575096  93.5163297  26.2753279   7.8423893
  53.6464024  77.3571873  86.3618469  54.4209290  77.5405598  86.8935585
  53.7389755  77.9279184  85.5990028  15.4655910  81.9661522  83.2156181
  14.7200656  82.3471260  83.6796093  15.7463443  82.6518345  82.6096058
  15.0410417  21.5639669  10.8980763  14.0944484  21.7015583  10.9336102
  15.2846530  21.3416702  11.7966759  95.1833476  71.7741663   3.3511936
  95.2996697  71.9570524   2.4188530  95.4989220  70.8771116   3.4604942
  94.7670330   4.4566948   7.3285114  94.6955420   4.8443300   8.2007801
  94.2966165   5.0638658   6.7572987  28.7371782  19.8575146  32.0782482
  27.8865150  20.2624542  32.2474587  28.6965469  19.0160829  32.5327503
   1.7179294  73.2968998  61.4536762   1.6719663  73.2062197  62.4054623
   1.7897785  74.2399263  61.3061190 105.0829961  16.2487919   0.4075825
 104.6327712  15.4047996   0.4423153 105.8031894  16.1109240  -0.2076805
  46.1819029  95.2774525  75.3490639  46.6338634  94.8806381  74.6044111
  45.8326530  94.5342922  75.8409739   9.5087198  25.0217277  27.2102177
  10.2765659  25.5765516  27.3473751   8.8208631  25.6282598  26.9359791
 111.3399817   5.0182516  32.6618397 112.2940590   4.9419290  32.6498711
 111.0584809   4.3977672  33.3341419   1.1589912  45.9622557   1.1956322
   2.0271567  45.6008417   1.3742268   0.6510142  45.7652933   1.9826519
  14.3448070   6.0910112  -0.1981628  13.4719089   6.2558205   0.1583779
  14.8967365   6.7649776   0.1985562  57.1915531  62.7269602  89.0592670
  56.7190266  62.0692444  88.5490227  57.0494461  62.4706936  89.9705124
  71.6072107  99.4650061  17.7896607  72.1945215 100.1835234  18.0242550
  71.8064667  98.7760813  18.4236157  67.4388123  64.8149633  79.9897337
  66.5989017  65.2656603  80.0771904  67.5462723  64.3459702  80.8172226
  20.8994535  21.1115438  11.1672699  21.1699346  20.2350265  11.4407456
  20.8489087  21.0597116  10.2128136  19.2903713  43.4413893  15.5142891
  20.0471738  43.8555128  15.0995838  18.6989692  44.1673834  15.7128250
  95.5559279   8.8844425   0.5403244  96.2924053   9.4542820   0.7619488
  95.6954076   8.6596233  -0.3795898   0.5278590   9.0438253  20.1242649
   0.8098391   9.9270040  20.3624165   0.2341417   9.1227562  19.2166722
  14.0074495  37.6471216  14.2278111  13.3465579  37.6750643  14.9196732
  14.7993902  37.9935915  14.6389401  39.7319031  92.0684242  88.6010265
  39.1435122  92.8157139  88.4933376  40.1850319  92.2374630  89.4270611
   7.2604707  33.5844023  29.9638378   7.0033792  34.3503839  30.4770767
   6.9536355  32.8375990  30.4780018  52.8927377  45.7002527  31.9184601
  52.0341066  46.0093958  32.2072708  53.3841470  45.5663664  32.7289116
  95.9260871  46.4134485  19.9874985  95.2186240  45.8414919  20.2851498
  96.6417052  46.2486441  20.6014740 106.2227060  37.1828348  34.9085533
 106.4438082  36.6726953  34.1293919 106.7572881  36.8008024  35.6046211
  23.8047385  95.1492596  90.4235458  24.4700360  95.1744175  89.7358131
  23.7293601  94.2223167  90.6500816  24.1889194  26.9781286   3.8425266
  24.1731885  27.9302580   3.7453282  25.0328735  26.7138941   3.4762585
 101.2715317  31.4731676  29.7744286 101.1827733  31.5089971  30.7268345
 101.5112998  30.5649740  29.5902264   2.4648145  21.6750700   2.5028622
   1.8999556  21.6477949   1.7305767   1.9313100  22.0992166   3.1749546
  10.7017902   5.8267672  18.3379280  10.7330802   6.7177946  18.6862480
  10.8420947   5.2662260  19.1010391  17.9504779  36.6353208  14.4203484
  17.7508119  37.3321325  13.7952053  17.6048711  36.9549829  15.2537739
 105.2398421  27.3576719  11.1598503 104.8317911  28.0797464  10.6820118
 104.5546819  26.6918356  11.2185585  98.8135268  18.2080824  18.9925587
  98.1125285  18.2829220  19.6400368  98.4961750  17.5533659  18.3705723
  11.4289382  17.9720623   1.2869179  12.2067931  18.4884102   1.0758316
  10.7585862  18.6229259   1.4948666  16.1794952  11.1082251   1.6327965
  16.1408809  11.7277414   2.3614514  15.4952958  11.4026195   1.0316002
  18.2141021  32.5876791  12.9828751  18.4106019  31.6954977  13.2685959
  18.9522270  33.1085379  13.2992661  58.7248755  99.9734783  72.0844269
  57.8467989  99.8768520  71.7158127  59.1233206  99.1089821  71.9838572
  20.4664016  31.5624785  80.7058048  20.8794570  30.7494593  80.4149055
  21.1558294  32.2220850  80.6293488  22.8285170  47.9263163  70.7885122
  22.7162552  46.9865513  70.6454325  23.3720779  47.9857254  71.5741634
 102.4378730  19.6717834  82.6193142 101.7344905  19.7891235  83.2578373
 102.0464230  19.9233627  81.7828274 108.5845782  43.2599146   4.0532028
 108.7128927  42.4368841   3.5816300 107.7416469  43.1543238   4.4942867
 101.5858962  31.3677008  15.2513420 101.6929509  31.0559160  14.3527043
 102.3214342  30.9826071  15.7277023  77.1984291  97.2128105  85.5843449
  76.9238186  97.5601959  84.7357368  76.5689707  96.5168858  85.7733250
  84.8936154  24.5716173   4.4233715  85.2576764  24.8621399   5.2596104
  83.9675440  24.8092396   4.4698345 105.1055552  38.8997919  24.1225826
 105.9386779  39.2127211  23.7701428 104.8987533  38.1265337  23.5976612
  60.6437778  91.9037533  86.1370659  60.1678610  92.5568676  85.6240559
  61.5065575  92.2931385  86.2792778  25.8654741  28.7320787  37.6091206
  25.9063152  27.9182035  37.1069634  26.3619998  28.5468656  38.4062397
 106.5482046  49.3777258  36.5590202 105.9065534  48.7066347  36.7917168
 107.3756577  49.0505487  36.9118797  98.1752683  45.1521856  38.6314022
  99.1165473  45.1305468  38.4588921  98.0499651  45.9268457  39.1795170
   1.8301109  29.6967585  -0.0740898   1.6766241  28.7608416   0.0552570
   2.4990323  29.9214060   0.5726826 101.6721608  39.6501905   9.2939865
 101.6082217  39.0105707  10.0032437 100.7657768  39.9000818   9.1144001
  87.2395612  99.0631421  30.8734905  86.3529635  98.7327607  31.0184776
  87.7055503  98.3300908  30.4713452  95.6533337 105.9924395   2.1742832
  95.4948474 106.9356091   2.1349728  95.9907246 105.7698948   1.3066017
  89.6995402   9.6251201  85.4418755  89.3043900   9.5426654  86.3097954
  90.2565766  10.4009723  85.5050373  39.3438247  33.2566626  10.4148972
  39.4555429  33.4601004   9.4862568  40.0838664  33.6853964  10.8447277
  63.9632583 103.9383347   4.5120823  63.4203387 103.3057435   4.9825012
  64.5540834 103.4011633   3.9842522   0.6731108  25.0913698  11.4058888
  -0.0040909  25.7447845  11.5810501   0.6387261  24.5027382  12.1599209
  29.6032310  78.2931900  86.4465618  29.5156789  77.3692799  86.6809940
  30.5421472  78.4170961  86.3075924  39.5364499  91.9621849  55.2667856
  40.3713417  91.5819645  54.9936152  38.8746834  91.4248371  54.8314095
  74.2740089  41.3243753  14.2952645  73.7081437  41.7576200  13.6562645
  74.3566187  41.9563753  15.0093949 108.7373926  25.3471071   3.6407482
 108.0580904  25.5761845   4.2750275 108.2739569  24.8615629   2.9583180
 100.2080108  52.2668535  12.3910248 100.7390477  51.9007189  11.6837895
 100.1323582  53.1967337  12.1769821  82.7484418   8.1294345  65.3078938
  83.1392098   7.8541183  66.1371946  83.4963275   8.2922649  64.7330999
 105.2738001  22.7824814  12.6021588 105.6770112  21.9550974  12.3393070
 105.3038718  23.3246548  11.8138897  33.1026653  15.3245098  11.8177712
  32.5634387  15.6758625  12.5263130  32.4725250  14.9709017  11.1899864
  65.5427481  97.5694592  10.2414620  66.3012029  97.2623570   9.7447979
  65.2789212  98.3771641   9.8007309  29.7112897  42.0035059   7.2731697
  30.1385358  41.7191679   8.0811608  28.8033155  42.1682150   7.5275147
  74.0525533  13.7895202  83.3731365  73.5755754  14.0152645  84.1717434
  74.8521996  13.3648490  83.6837101   5.5396798  39.5660479  41.8902886
   5.5835775  40.4533178  41.5338337   4.7950080  39.1645986  41.4424812
  39.9361420  58.6012077  79.6554804  40.4651737  59.3906498  79.5408630
  40.3852320  57.9344130  79.1359234  24.8080972  39.8210985  21.0693943
  24.3755678  39.0515215  20.6994164  24.7836355  39.6779043  22.0155060
  51.8761921  66.4372253  90.0786018  51.2588310  65.7149029  90.1941490
  51.9834614  66.5112400  89.1303158 100.7799555   7.7709705   8.4662831
 100.3254821   8.3776552   9.0507614 101.3604285   8.3277971   7.9474079
  25.8391619  64.0267181  66.1939526  26.3528872  64.6627903  66.6916800
  25.8018279  64.3890858  65.3087807  16.7969611  23.6449463  12.9524624
  17.5818589  23.2146961  12.6132595  17.1214679  24.2302877  13.6367905
   4.4289196  71.3272572  78.0385351   5.2536798  70.8817577  77.8448009
   3.9084807  70.6746435  78.5070133  23.5630822  81.4604664  53.5147762
  22.6397538  81.2405300  53.6385584  23.9747834  80.6334591  53.2642078
  84.4937565  48.2126219  17.9184639  85.0777973  48.0001718  18.6464703
  85.0714989  48.5709078  17.2446072 111.0144831  19.8880178   5.0951874
 110.7654573  20.7276232   4.7088253 111.9675137  19.8588163   5.0108444
 103.9690520  28.1339533  29.0288651 104.4165088  28.3205397  29.8542130
 104.4215466  27.3663027  28.6793148  50.1662302  40.4065180  83.5226536
  49.9480724  39.6596789  82.9650974  50.3361130  41.1216354  82.9094791
  20.0276399 106.1230373  73.2127953  20.0605273 106.8321133  73.8549471
  19.0945220 106.0023308  73.0368567  86.4363098 102.8646755  89.7639656
  85.9477234 102.2523117  89.2139435  87.3339367 102.5324440  89.7533131
 101.6370799  42.9597361  15.4241383 102.1178724  43.6709864  15.0008404
 100.7319524  43.0777342  15.1359474  43.8371328  60.2483541   2.5026810
  43.7269643  59.3642694   2.1527111  44.5541623  60.1692564   3.1318581
 113.1565286  30.9573824  13.2602322 112.3118736  31.2640173  13.5900318
 112.9493906  30.5365736  12.4258148  12.0154241  44.2336161  36.1026585
  12.1525958  44.3180258  35.1591026  11.7527011  45.1094324  36.3857853
   9.9728936 106.4386940  74.8838282  10.2571702 105.5636215  74.6198797
  10.5255020 107.0332336  74.3765020 111.9631840  55.4506380   9.5061981
 111.0971977  55.1445085   9.2367851 112.4881770  55.4182417   8.7064659
   1.8745974  21.5548307  55.8085644   1.6346339  21.8720705  54.9379360
   2.5761035  22.1410877  56.0921681   3.5519651  14.7890407   8.3789932
   2.9233602  14.2917091   8.9022076   3.3805469  14.5179016   7.4771416
  16.3662961  26.7544157  13.2959664  16.9272950  26.0599739  13.6413014
  16.0438636  27.2106153  14.0732395  20.6284478  58.1459505  25.4026901
  20.2408078  58.2122309  24.5300114  20.7402328  57.2059042  25.5443394
  46.6781572  35.5517942   9.3501866  46.2609342  36.2780840   8.8868630
  47.0759061  35.0232679   8.6583149  13.6938143  89.6558285  85.7812595
  12.7932358  89.3499470  85.8890915  13.7279510  89.9886608  84.8844337
   8.9521364  52.8071482  34.3810379   9.5480493  52.3701269  34.9894249
   9.0003541  53.7323744  34.6216023  12.6741079   5.4420978   3.5461819
  11.9835237   4.7793610   3.5359203  13.2364419   5.1907188   4.2788613
  25.1862100  43.9341337  13.4636795  25.1897624  42.9952795  13.6501991
  25.1384071  44.3492300  14.3248665  11.9872716  37.3527510  16.0301602
  11.5496209  36.7289717  15.4508507  11.3496879  37.5239069  16.7232811
  85.4936452  11.7969257  39.2339146  86.2274553  11.8129045  39.8483288
  84.7432651  11.5282137  39.7639668 100.5236913  19.2776329  13.4608376
 101.2289597  19.2471296  12.8143894  99.9641635  18.5330040  13.2401764
  62.9221106 103.4961700  82.5259209  63.1612110 104.3222809  82.1056747
  63.6608124 103.2975578  83.1013298  63.4295324  73.8118631  24.2341339
  63.6815599  74.4186670  24.9302017  63.6908963  74.2527944  23.4257424
  42.6723817  36.9277269   4.5574009  42.6438573  37.0281107   5.5088913
  41.7940524  37.1705992   4.2644989  50.1000166  70.0006485  79.3110514
  50.1518059  70.9397840  79.1333485  50.9668970  69.7722101  79.6465540
  65.9542135  12.7632219  16.7512715  66.5823129  12.7194197  16.0302937
  65.2679113  12.1414501  16.5091431  37.1275953  47.2011549  10.7429421
  36.8857005  47.3999483  11.6474831  38.0508760  47.4463732  10.6824982
  17.5809765  88.6447239  82.8450775  17.1714044  89.3632030  83.3270264
  17.9451776  89.0582561  82.0624065  25.8214286  28.5966474  13.7938320
  26.5685275  29.1487486  13.5630428  25.4891065  28.2799704  12.9538929
  39.0083841  31.8465216   3.8029873  38.6657909  32.5703604   3.2786572
  39.4710830  32.2718031   4.5249855  41.6567758  27.9941446   7.2864639
  41.3960222  28.8896734   7.0713436  41.3473895  27.8633673   8.1827938
  44.1252995  87.0204449  76.0337400  44.6805239  86.5390778  75.4203510
  44.4531488  87.9190826  75.9990406 110.4124309  55.3583986  22.3219597
 111.0034897  56.0706980  22.0780289 109.5663978  55.7850534  22.4577057
   1.4907172  56.3647539  22.0364678   1.9737104  56.1878759  22.8437245
   2.1344856  56.2380201  21.3395226  37.9223350  54.2546064  40.4291165
  38.1276420  54.5450479  39.5404541  38.7630466  54.2703707  40.8864891
  45.2677488  87.5728512  84.4088173  44.7147036  88.0554676  85.0231838
  44.9022579  86.6882133  84.4015694  19.0991548  19.8564512  38.7829125
  19.8750690  19.3760235  38.4941494  19.3325904  20.1899559  39.6492302
  74.3469286  94.4930744  48.8059664  74.7119427  93.9123058  49.4735765
  74.7246075  95.3504944  49.0019608  61.8493512  41.0831911   4.4950115
  60.9152845  40.8878118   4.5697605  62.2095731  40.8631689   5.3541195
   7.8295233  19.7921180  80.8734989   7.4694350  20.5322456  81.3621426
   8.1457140  19.1909313  81.5479088  74.0661907 100.5938148  78.8067675
  73.5103512  99.8533249  79.0495634  74.5725775 100.2779388  78.0584192
  81.0984516 103.8884640  78.2193041  81.7046642 103.1687260  78.0440760
  81.2125683 104.4835186  77.4782753  40.8423475  53.3367330  13.3780968
  39.9274638  53.4710867  13.1307709  40.8447793  53.4045393  14.3328869
  16.3262847  50.5598432  30.8900273  16.2052635  49.8376638  30.2735436
  17.2302392  50.8430941  30.7526505 108.0334570   8.8171703  22.7692043
 107.2098734   9.1398937  22.4034226 108.3364131   9.5247967  23.3381664
   7.8956464  38.8883383  35.6445038   8.3369783  38.8939173  36.4938748
   7.1916583  39.5303900  35.7361614  55.7479763  84.1273117  80.3891468
  56.3922739  83.6631298  79.8546839  55.6196547  83.5641861  81.1524677
  20.2281097   9.4953377  43.4502804  20.2905992   8.5436232  43.5313046
  19.9604896   9.6414215  42.5429451 106.4223005  57.3262865  27.3572075
 106.2251760  57.0879251  26.4513695 107.3740246  57.2485716  27.4236500
 103.6452342  25.4778289  77.5456190 103.9696027  25.5886936  78.4393358
 103.9187814  26.2745284  77.0909929  98.5838105  28.8396246   6.9416439
  99.5178367  28.9764292   7.1001064  98.4361364  27.9193766   7.1597778
  44.3261051 105.7140827  82.6340961  44.0295315 106.6069889  82.4580193
  43.9074469 105.4817104  83.4629250  15.8498338  24.8760540   1.3626206
  15.5407527  24.3235237   2.0805466  15.8524898  25.7616074   1.7259705
  16.9073156  16.2895519   7.3982536  17.7259782  16.4505608   7.8673947
  16.3660816  17.0550806   7.5912964  96.3865234  43.0917437   6.5509998
  96.7829658  43.9457781   6.3787186  95.5592682  43.1102449   6.0698235
 112.3923780  26.1255629  35.8917916 112.5181915  25.1769812  35.9162724
 111.4872934  26.2545235  36.1753761 113.0506565  27.4290258  12.9090130
 112.1027686  27.5121672  12.8049671 113.2570030  27.9742033  13.6682522
  90.9457875   2.0055389  87.4948788  91.1433173   1.8557643  86.5703297
  90.5720569   1.1777591  87.7970982  17.0020822  56.3921816   7.6527607
  17.1058467  56.3757784   6.7013466  17.0603803  57.3191816   7.8841030
  41.6907549 106.9804573  75.5469608  40.7723427 106.7291355  75.4490089
  42.1172047 106.1980438  75.8965254  39.8429084  99.5238781  74.1644049
  39.0990901  98.9444351  74.3293715  39.8544073  99.6340942  73.2136393
  57.0376542  54.6946127   6.7112934  56.3374379  54.1422445   7.0588696
  57.1894029  55.3473646   7.3947537 100.7824899  12.7114136  14.0386593
 101.6565444  12.5775892  14.4052040 100.7225730  13.6567957  13.9012348
  77.0543481   8.0848026  80.8239841  76.8757583   8.5404014  81.6466427
  76.3211776   7.4778938  80.7222557  97.1845915  31.1195261   7.8801930
  97.4855472  30.2684099   7.5619805  96.5617110  31.4166338   7.2168934
   7.8829101  19.8395950  45.6089222   7.3196033  20.4348690  45.1143849
   8.3321527  20.4030067  46.2389767  11.7286971  28.0424482   1.4377796
  12.2068075  27.9295809   0.6162560  12.4107889  28.1824095   2.0945847
 106.4001776  40.0776560   8.3208668 107.3488905  40.0923235   8.1945431
 106.0893990  39.3979628   7.7228081  23.0368876  97.4371529  82.9720497
  23.0489707  98.0824184  83.6789608  23.7523556  96.8373013  83.1830406
 109.5531990  36.2075598  21.6470349 109.3457462  35.4496080  22.1935665
 109.5002581  35.8777220  20.7500183  36.6624931  46.3894922   3.5504067
  37.2327522  47.1582205   3.5602200  35.9614995  46.6034109   4.1660988
  75.6477976 102.7126408  78.4694433  75.0201893 102.0110512  78.6429548
  76.4596415 102.2577667  78.2453346  55.6562901 102.3832321  79.7947979
  54.9217844 101.7929554  79.6265841  56.4175606 101.9262600  79.4372034
   7.9162076  18.2103760   0.0791371   8.5459331  17.7716762  -0.4928959
   7.8827337  17.6624424   0.8632767  96.5956427  12.9375631   8.5176575
  95.7428028  13.0711157   8.1040585  96.9718768  12.1891291   8.0544865
  19.2819455   7.3982508   9.4669926  18.3967737   7.3662931   9.1041195
  19.7751954   6.7598802   8.9517986  92.6867820  21.5067958  58.9262390
  93.2654572  21.4948654  59.6886206  92.0170117  20.8520698  59.1236544
 111.0588910  44.5606882   4.3157875 110.2303244  44.1304571   4.5269978
 111.0978319  44.5490820   3.3594525  16.8856672  61.2708170  44.2836678
  16.8271592  62.2026903  44.4944393  16.7262891  61.2280447  43.3407986
   0.7687095   9.6598799  15.1434433   1.1665061   9.5565969  16.0079205
   0.8480767   8.7961800  14.7385323  94.5552816   5.2013571   9.9688923
  94.4237508   4.2706329  10.1496899  93.9732064   5.6491930  10.5827915
  35.0869563  17.3744041   3.8309681  35.1133970  16.5741569   3.3064282
  34.2493585  17.7800018   3.6070263  17.9105094  40.7309229  25.1996529
  18.1617692  39.8382265  24.9626171  18.7326577  41.2210733  25.1923668
  90.7567025   6.5192985  86.7993164  90.6312848   7.2012138  87.4592400
  91.0510302   5.7561206  87.2964573  45.9041265  21.7901546  23.5501015
  45.5890134  20.8867056  23.5234844  45.6009248  22.1739180  22.7272904
  76.1468888 101.0686286   4.7759545  75.2592088 100.8885748   5.0855267
  76.0425449 101.2506135   3.8420307  31.2785104  48.4316236  28.6859524
  31.9579700  48.9937479  29.0582096  30.5224279  49.0087301  28.5786545
  19.3083251 103.4550953  68.7948370  19.8662364 103.0092812  69.4321871
  18.4182084 103.3203793  69.1200733  28.3892682  29.4968206   9.7611820
  28.5993388  30.0812036   9.0327656  29.0585950  28.8137228   9.7209179
  90.5765905  30.9068472  38.2915508  90.2773108  30.4941446  37.4814045
  90.0169315  31.6772730  38.3888161   2.8178743  36.3535959  11.3407147
   3.5943368  36.1527712  11.8632042   2.8062776  35.6803495  10.6603920
  16.1001018  38.6325056  37.3731911  16.8977645  38.1377298  37.1856796
  16.1395648  38.8028318  38.3142864 106.3662030  52.9244024  29.7146809
 105.4941918  52.8535253  30.1030171 106.4980079  53.8644964  29.5918667
  43.5004330  50.4160070  89.6814919  42.9550982  51.0664606  90.1239300
  42.9157019  50.0075006  89.0431690   2.9905132  21.9309170  41.2146580
   2.3297885  22.5658066  41.4914047   3.4319309  22.3509676  40.4764664
  96.3659336  29.0215380  20.6990444  96.7962290  29.2945272  21.5093243
  96.7254545  28.1531412  20.5177605   7.1368459  57.1229917  41.1368000
   6.9395498  57.9706461  41.5352833   7.0745090  57.2808630  40.1947701
  61.4452816  28.5367107  90.1936626  61.6804434  27.8888320  89.5294476
  62.2387124  28.6399173  90.7190609  20.3100589  39.2451269  11.8865120
  20.0654224  39.1920645  10.9626209  21.0445503  38.6377508  11.9750607
  52.6952508  67.3352320   4.5588600  52.4010709  66.6653807   3.9416134
  53.6495164  67.2603685   4.5567333 111.5126611   7.0507557   2.8947079
 112.4631693   6.9415314   2.8658116 111.2001254   6.2973959   3.3957112
  28.2895044  68.3639223  32.8711044  27.9899791  67.8359205  32.1310150
  29.2281106  68.1851847  32.9285252  12.8707411  10.9718322  89.9839115
  12.4986556  10.5702876  90.7691193  12.7197363  11.9098758  90.1000786
 112.4967719  35.8739852  78.9510965 111.9599200  36.5729331  79.3245888
 113.2335664  35.7885932  79.5561361  66.2304831  79.0198231  91.2702560
  65.9154367  78.1321573  91.4406109  67.0214081  78.8966513  90.7453728
  53.2417297  58.8970852  89.5890331  53.7676048  58.1056070  89.7041607
  53.0858278  59.2126369  90.4791737  50.6477121  37.1010191   6.7862999
  49.8995260  37.1084864   6.1893189  50.4750875  37.8187353   7.3956597
  28.6876369  95.8853149  73.8771915  27.8424335  95.5558586  73.5717058
  28.6570668  96.8252087  73.6985970 105.3058078  41.6538889  25.9549820
 105.6720139  42.1601278  25.2298271 104.4230081  41.4241678  25.6649410
  75.0319577  10.7493400  73.0157661  75.4609848  11.3852500  73.5882950
  75.4941202   9.9276828  73.1816244   0.4074267  20.3735287   4.9891770
   1.2996510  20.0274307   5.0088703   0.2060560  20.4638178   4.0577614
  95.1249123 102.2912216  56.5540552  94.5897388 101.5946579  56.1737442
  95.3780365 102.8336811  55.8071375 101.9978835  21.0577375  18.6908734
 102.9414989  21.0026819  18.5399067 101.6260649  20.3726799  18.1352913
  87.9500522  45.7726175  12.5945770  88.3260776  46.1342222  13.3971226
  87.6960804  44.8802549  12.8299725  49.3566465  95.9886265  82.4019337
  49.4332266  95.4387379  83.1816769  49.1945648  96.8678474  82.7438641
  64.5539379  90.4963875  90.8572865  65.2156067  91.1713600  91.0084248
  64.9978924  89.8424053  90.3174305  95.3551292  68.0095673  74.6564674
  95.4546261  68.8130522  74.1458321  94.8131943  67.4426174  74.1077375
  57.0535183  86.8829536  81.8780422  56.2233925  87.2973728  82.1133709
  57.4118519  87.4399471  81.1869717  51.8544248  46.5380842   2.2673142
  52.0498613  46.4632589   1.3332760  51.3090852  47.3217470   2.3358833
  16.6291431  36.6027529   3.8260853  16.6447357  37.2492964   4.5317566
  15.7224611  36.2968904   3.8014710 101.5266301  33.3301432  13.0521977
 100.9488346  33.7820703  12.4372589 101.5685059  33.9105398  13.8122093
  17.6405195  48.4931833   9.5206272  16.8626741  48.3469755   8.9822876
  18.3188442  48.7509329   8.8963902  14.6318153  45.4868395  12.6528847
  14.1456273  45.5987818  11.8359863  15.3709176  44.9262697  12.4168312
   1.1425665  27.8579981   4.6925556   1.0948542  28.6067469   4.0981304
   1.3007835  27.1073801   4.1200459  66.7902708 104.7976398  59.2294216
  66.9310856 103.8932800  58.9491749  66.0907602 105.1185894  58.6602974
   1.0392884  75.1982767   0.8022415   0.8575156  75.9817392   0.2832234
   1.0435155  75.5068857   1.7083180   8.2155335  87.7097130  84.1492367
   8.9950973  87.9102993  83.6312866   7.6665330  88.4895611  84.0675831
  15.1760391  41.0663206   5.8439457  14.3368057  40.6754858   6.0871899
  15.1127914  41.9739038   6.1414730 108.0628301  44.8675424  24.5032608
 108.1867077  44.7632582  23.5598576 107.4114443  44.2051870  24.7339546
  86.4175082  33.2872390  89.9619675  86.9310523  33.5159587  89.1872501
  86.8251086  33.7806415  90.6737518  78.2904863  98.5000324  52.5003386
  78.5683680  97.6739407  52.8960466  77.5484848  98.7837601  53.0343485
  90.1106145  19.5085079  31.6448891  89.4644870  19.6153719  30.9467995
  90.8978213  19.9382860  31.3104832  74.6952582   3.6901187  85.7906818
  73.7555457   3.5148239  85.7412338  74.7547460   4.5840167  86.1277771
 111.3725735  48.7864286  15.2966129 110.6108619  49.3500978  15.4319012
 111.0035850  47.9469950  15.0219834  17.8979448  43.5893423  38.3213150
  17.1193317  43.5100920  37.7702057  18.3426383  44.3722517  37.9964459
  28.8550830  77.8964090  89.5177364  29.7252321  78.2907534  89.4580364
  28.9995193  76.9683647  89.3330860  43.0856800  39.9989676  76.8634033
  43.6784363  39.2473984  76.8597507  42.5157166  39.8508191  77.6180077
   2.4179461   8.6938857  79.4208384   1.6831496   8.0917644  79.5381308
   2.2258952   9.4237136  80.0096512  94.0103449  34.8386557  22.2142422
  93.2664563  34.2504675  22.0842564  93.9495410  35.4647619  21.4927685
  22.9032660  60.2139854  80.5979252  23.7628293  59.8432064  80.7976913
  22.2891569  59.4992924  80.7661915  21.8628287  67.9134417  88.6717033
  21.5062189  68.2358313  89.4994259  22.5283766  67.2757530  88.9298344
  31.0081485   2.8767521  16.0310471  31.5274671   3.6708052  15.9044945
  30.1781133   3.1883747  16.3918221 111.4252235  50.8685095   2.2470772
 112.0469906  51.4584429   2.6732361 110.5678965  51.1580069   2.5591862
   6.2389472  79.5653231  40.0301659   5.7153180  79.1837389  39.3255818
   5.6312278  80.1395113  40.4962265  59.1092682  85.1060200  72.9752731
  59.9508762  85.2423477  72.5401402  58.7528706  85.9871006  73.0888796
  33.2875255  60.1705725   8.4270584  33.1093648  59.2660124   8.6844647
  34.2221454  60.1812059   8.2206547  21.2652257  43.4376890  12.3260796
  22.0449498  43.8749010  11.9838726  21.0872606  43.8802511  13.1559574
  53.7107900  56.7200262   3.3681690  53.8394216  55.9154016   3.8704312
  52.9565576  56.5350611   2.8085625  47.1227983  29.4116861  31.1576473
  47.7762178  28.7170774  31.0751354  47.1847108  29.8976690  30.3353226
  97.7178384  66.8204195   8.9901077  97.9655601  67.7335531   8.8450062
  98.5381533  66.3338930   8.9088356  47.4374059  46.2697107  33.9315712
  47.4993757  46.1325628  32.9862797  47.8222135  47.1345312  34.0738499
  20.6130031  27.8494436  40.4380715  21.3178924  27.9411203  41.0791313
  21.0362438  28.0021936  39.5932209  11.8012106 104.6031284  77.2333717
  11.6196680 103.6691952  77.3385048  10.9395385 105.0191021  77.2600508
   6.9552854  31.1046488   5.2215302   7.7419618  31.4247496   4.7800457
   7.0250657  31.4463598   6.1129296  84.4083309  92.7006435  78.1673002
  84.5337009  92.5248814  77.2347641  84.9263000  93.4880638  78.3343697
  28.2801536  76.7148954  20.5710995  29.0107730  76.0979063  20.5292904
  28.4778884  77.3662455  19.8981392   5.5321458  40.5100614  24.9657452
   6.0484174  39.9781782  24.3601048   4.6839288  40.0685961  25.0089371
 111.1888791  13.9370155  71.7101526 110.5928565  13.2349014  71.4493418
 111.7794705  13.5273647  72.3423100  39.9629569  87.9348183  69.3576574
  39.7979093  88.7945652  69.7447443  40.9166145  87.8780270  69.2981672
  73.4986473   0.8592414  85.0853920  73.9757348   0.4039001  84.3916416
  73.7515355   0.4040241  85.8885479  81.3023472  67.9188108  76.0053301
  81.8752384  68.2955551  75.3374290  81.8669605  67.8077888  76.7702579
  93.7816764   3.0252933  87.5982952  93.6223508   3.7370872  88.2181358
  92.9626323   2.9456424  87.1093559  14.5859912  41.4401133  53.2695400
  15.1887515  40.7659132  52.9558956  13.7511733  41.2280352  52.8520119
   5.7338908  32.8844816  27.7022850   6.4467243  32.9322702  28.3393204
   5.0722698  32.3360807  28.1238758  68.6992315  36.8119127   2.2850525
  68.7731603  37.7480776   2.0996964  68.8628057  36.7402918   3.2254517
  24.2603830  11.6077072  41.2821877  24.8086742  10.8732683  41.0061466
  23.5918906  11.2109024  41.8406689   0.8121730  77.5764656  76.5838337
   0.5668880  78.4819889  76.7738485   1.1285545  77.5985003  75.6806993
  27.9112390  38.5604364  21.2924587  28.7904981  38.5919649  20.9154331
  27.7148488  39.4695837  21.5185558  50.8897257  96.4561367  77.7399063
  50.6174564  97.0825481  77.0692968  51.0947418  96.9962883  78.5030842
   5.9491399  50.6555731  16.9449055   6.8362001  50.5831129  16.5926087
   6.0722974  50.9662992  17.8418553   3.1619558  88.5253429  66.4463758
   3.5500726  87.6524162  66.5064001   2.4466841  88.4267426  65.8179665
  57.2667599  85.8321857  59.5551825  57.2813463  84.8960114  59.3562222
  57.2755241  85.8739948  60.5114269  45.4784441 105.3889465  40.9989023
  45.3142786 104.4602489  40.8351707  45.1530313 105.5367756  41.8868685
  51.0079912  49.2657644  27.2764790  51.4303067  48.4261019  27.4577343
  51.3526681  49.5278913  26.4228356   3.1273893  20.6471521  67.0457947
   2.7867368  21.3668615  67.5770390   3.1360725  19.8953993  67.6382649
  31.7557290  50.5345232   8.3790314  31.2153819  50.9761412   9.0341866
  31.6823819  51.0836584   7.5984490  42.5941467 103.9238262  46.7157364
  42.2998810 103.8161945  45.8112764  42.8510857 104.8439121  46.7761278
  16.9625381  15.2194197  22.9133522  17.6583150  15.1974804  22.2563564
  16.2523988  15.7053167  22.4940216  54.5558023  55.8861685  86.8663120
  53.7348413  56.2628651  87.1831036  55.0063324  56.6163349  86.4419079
  48.3733609  22.9286463  34.3244755  48.1632283  22.2626383  33.6698734
  48.8528589  22.4541313  35.0035584  98.7137891  13.6954402  86.0104942
  99.4536162  14.1793918  85.6435013  98.9644099  12.7754020  85.9271812
  79.0396214   2.4389457  89.4597244  79.7630931   1.9960975  89.0162086
  78.5369111   2.8434657  88.7527084   6.9180349  43.6586458   5.2076065
   6.6008714  44.3233663   4.5962155   7.7089504  44.0408689   5.5878555
  49.9734306 100.5773926  64.1538906  49.3676329  99.8379230  64.2031574
  50.8019114 100.1898956  63.8715792  13.3575586  41.7744142  31.0434639
  13.1080964  40.8525450  30.9789478  13.1388667  42.1422083  30.1872360
  19.3411878  34.7983152  11.3918793  19.1821483  35.7414705  11.3545334
  18.4695819  34.4061834  11.3393128  75.2111101  71.5523243  79.8122787
  74.3388844  71.4449167  79.4329166  75.7406759  70.8755493  79.3906593
  38.6282396  74.7870922  85.9174824  38.7311435  73.9893150  86.4363194
  39.3635058  75.3405333  86.1807728 104.1704275  27.2765238  45.7142651
 103.3806349  27.5769503  45.2645981 104.2210175  27.8216535  46.4994538
  17.8353408  34.4360144   2.5885117  17.7867511  35.2466185   3.0952751
  17.2496274  34.5824510   1.8457234 108.9786174  17.6209814  30.2887356
 109.6028902  17.3067409  29.6347057 108.4595324  16.8491346  30.5146515
 108.1460144  28.1695063  10.6262695 107.2671248  27.7966768  10.6954205
 108.1097485  28.7255747   9.8480045   5.3533557  36.4183981  18.0139458
   4.5928577  35.8692438  17.8234207   5.0861028  37.2982389  17.7480518
  66.5203619  96.7477322  76.0017109  67.0837402  96.7558098  76.7755127
  66.0097551  95.9424496  76.0856009  53.7193441  84.0945339  86.4141560
  53.5753155  84.2749405  85.4852104  52.8656626  84.2407227  86.8216991
  82.1413470  14.9213313  80.2161026  82.9281903  14.4179344  80.4251385
  81.4588691  14.2607402  80.0974560  18.9892057  25.7532150  33.3145821
  18.9145425  26.6727049  33.0592453  19.9252799  25.6217415  33.4652722
 110.4917194  56.5111238  14.8721993 110.1561834  56.6337854  15.7602322
 109.7298981  56.6432745  14.3079292   2.7493337  14.3268520  49.6494782
   2.8680471  13.9221746  48.7901890   2.7319291  15.2671177  49.4710552
  62.1651888  87.8469276  75.3813934  62.2479057  88.6807823  75.8440733
  61.9108200  87.2209930  76.0594368 110.7683732  33.1575949   7.2898113
 111.4756014  32.9332144   6.6850674 110.9665634  32.6621897   8.0844986
  82.2740078  65.5772781  90.0217915  81.8283844  66.2337637  89.4863701
  83.1760406  65.8913612  90.0843334  71.8366338   9.6628570  85.0414753
  71.0021616   9.9073600  85.4416084  71.9409133  10.2742481  84.3124008
  46.5461114  42.5046522  18.8104355  46.0200837  41.7489416  18.5488522
  47.0102647  42.7608091  18.0134594  12.6377252  28.5134012   8.4975445
  13.3568481  28.7409574   9.0868771  12.0843652  27.9248506   9.0110027
  17.8260091  48.7252695  34.9478256  18.2727388  47.9793150  34.5475495
  18.3473495  48.9280302  35.7245743  91.2969317  28.4481794  19.7888481
  91.8784823  28.9611418  20.3500092  91.3801302  27.5516111  20.1136315
  77.8697109 103.9809895  44.4057417  78.5689688 104.5494556  44.7284174
  77.7467728 104.2462826  43.4942961  99.5640089  60.0022489   0.8267319
  99.4177057  60.0646479  -0.1171577 100.2917530  60.6004507   0.9963715
  48.5096407  78.4281683  91.2527561  48.6994219  79.3580389  91.1280441
  49.2261171  77.9756880  90.8076096  15.2557567  43.5834581   6.5102398
  16.0892585  43.9084703   6.1698448  14.7347024  44.3721468   6.6609394
 105.5898263  57.6440794   2.9091847 105.1739217  56.8481714   2.5778305
 106.3801099  57.7404005   2.3777687 101.3998629  15.6505806  32.7081406
 101.2202288  16.4899427  33.1317341 100.5358006  15.2634222  32.5676548
  18.3008960  38.6975080  17.7770817  17.9709676  38.1084043  18.4555638
  19.1999200  38.8899691  18.0434525  81.7324878   9.2169856  57.5149536
  81.5516616   9.6834373  56.6988945  81.6759539   9.8900890  58.1931639
  79.7408581  89.7114182  53.7051773  80.4397774  89.9684906  54.3065548
  79.3451691  88.9411640  54.1130781  90.1576328 104.2759705  60.7586765
  90.9936523 104.0738010  60.3386402  90.3577137 104.9969292  61.3556910
  21.1322596  45.1003360  66.6961765  21.8657401  45.3714561  67.2481966
  21.1092093  45.7491683  65.9928179  42.0903352  39.9326593  13.0234253
  42.6089719  39.1989881  12.6933205  42.4500421  40.6998045  12.5780785
  24.3073848  63.4834082   9.4793045  23.8423780  62.9564840  10.1291954
  23.6470798  63.6825735   8.8155567  39.6339753  66.8364508  34.4124615
  40.5911592  66.8412382  34.4155514  39.3910268  67.7135355  34.1159355
  82.7913570  90.2453995  70.5648518  83.5202789  89.6479225  70.7319689
  82.0115089  89.7446728  70.8043051   8.8678268  52.6717741  24.1255676
   8.7536434  51.7238504  24.0574753   9.2976859  52.8011209  24.9709809
  25.4270509  51.5709288  22.2863018  24.8230365  51.9774801  21.6649258
  24.9055675  51.4435083  23.0787956   0.1233008   7.6661872  87.3384094
   0.9067347   7.8890132  87.8412151   0.2158501   8.1559371  86.5212059
 106.1428596  50.6992037   2.5439560 106.3503982  50.8849413   3.4597408
 105.8811309  51.5454943   2.1812832  34.0455488  86.6132528   0.5896389
  34.3609241  87.5150759   0.5306255  33.2283548  86.6771585   1.0839379
  30.7679752  62.5427038  24.9388230  31.5974191  63.0135996  24.8581135
  30.1982215  62.9472811  24.2846596 110.8416964  72.2946722   3.2921707
 110.9330918  73.0659849   3.8515961 111.5159227  71.6911680   3.6043083
  14.9289993  50.9038145  17.4165451  14.0676263  51.0543806  17.0271885
  14.9735311  51.5220816  18.1459248  31.4291147  47.6605112  25.6288063
  31.0512737  47.9228861  26.4682305  32.3511651  47.9093820  25.6929409
  41.8108225 102.5589180  73.7807512  41.2024498 101.9196987  74.1515636
  42.4193716 102.7520943  74.4938993  87.9262543  95.4030228  65.4300594
  87.7305412  95.7645988  66.2944603  87.7231979  96.1135483  64.8216486
  55.3339341  58.1975824   1.7432034  54.7208551  57.9102404   2.4198067
  55.6296876  57.3872930   1.3282311  19.7597173  58.9823992  27.9485809
  19.4183591  59.1879255  27.0782578  20.7095960  59.0572149  27.8571140
 108.8324451  95.0464058  76.4255667 108.2042122  94.5545578  75.8967543
 108.2979012  95.4803467  77.0905399  73.4718755  26.0837156  21.0668766
  73.0922368  26.9575102  21.1595261  74.0443567  25.9893495  21.8281853
  11.7267897   3.3343601  60.7283497  12.5536253   3.8135528  60.7826042
  11.9804289   2.4126911  60.7775974  15.0746349  13.9005882   8.2073891
  15.9247735  14.0818340   7.8065693  14.9768594  14.5768005   8.8777649
  85.2604628  30.9525108  72.0348692  85.4326487  31.5857982  71.3380718
  85.1727153  31.4845371  72.8257418  88.3149052  78.0172968  74.2922926
  88.2933426  77.4975538  73.4887791  88.6588764  78.8675356  74.0184212
  86.9078446   7.4896335  87.9578590  87.0979262   6.5638923  87.8058815
  85.9785748   7.5810527  87.7473068  66.4418271  50.4858381  22.2929966
  66.1018041  51.1545641  21.6985047  66.7982248  50.9803183  23.0310356
  35.5197528  12.8996403  18.2669747  34.5636562  12.9453976  18.2706368
  35.7599834  12.8349430  19.1912758  32.2554541  79.1148233  51.9534922
  32.7220631  79.6527672  52.5931215  32.7728963  79.1928244  51.1519909
  78.3992195  70.4353428  56.2877655  78.8652229  71.2536716  56.1162758
  78.8485575  70.0577688  57.0439196  16.9226077  45.6293470  22.4542057
  17.0419696  46.5767080  22.5212109  17.7608875  45.2619154  22.7344143
  61.8096590 101.9096088  72.7325535  60.9279251 101.8769264  72.3614597
  62.2188282 102.6656437  72.3115730  30.6136707  67.1187479  30.0003349
  30.7961324  67.6051409  30.8043015  31.4053968  66.6029531  29.8475372
   0.9599808  58.7475759  19.3187534   0.6030420  57.9652578  18.8982689
   1.8731240  58.7774450  19.0332615  18.8982680  13.5421657  46.8725252
  19.4469264  13.5812663  46.0891485  18.6409380  14.4505309  47.0302916
  50.2126312 104.4418240  81.1007404  50.5548620 104.7889423  81.9245148
  50.5114603 105.0629520  80.4365635  17.9033712  52.9048807   0.9412968
  17.6736358  52.7350599   1.8548691  17.3653558  52.2913057   0.4409992
   1.8252184   7.7657794  68.1115294   1.5764382   6.8897914  68.4064579
   1.9226315   7.6805210  67.1631241 100.6080914   2.1062183  67.9494810
 101.3521624   2.0389747  67.3510933  99.9267054   1.5686893  67.5457430
  41.8106985  90.2575779  79.6523619  42.1545601  90.5696392  78.8153410
  40.9528399  89.8914242  79.4373274 112.6764609  45.4516298  12.4831116
 113.0278184  46.3357241  12.3775208 112.2758223  45.2505190  11.6373741
  87.1575832 101.5042877  81.0338306  87.6142502 101.3906288  80.2003002
  86.2545300 101.7037010  80.7869244 110.8100297  82.0543367  38.2347214
 110.0803711  81.5399725  38.5800564 110.7544185  82.8900511  38.6981117
   0.2850249  25.5507373  66.7065048   0.9222176  25.0318813  66.2155819
   0.7866957  25.9220027  67.4322557  94.1586591  14.0067577  77.1212196
  94.9654628  13.6262512  76.7740631  93.4683038  13.6624813  76.5545511
  57.7867199   9.4434738  80.0064850  58.5613633   9.9649238  79.7961426
  58.1059337   8.5415553  80.0360966  37.8945545  28.5702116   7.3094666
  37.1988014  28.5923178   7.9664814  38.4845928  29.2805559   7.5614559
  69.7366476  81.3982868  73.3217239  69.7642183  81.0932922  72.4148369
  70.6554890  81.5154839  73.5630417  67.6148558  14.6212959  49.7301769
  68.4690524  14.5314121  50.1526690  67.6918817  14.1119098  48.9234400
  81.6554356  82.5798416  75.4119873  81.3072777  81.6886997  75.3824472
  82.4433899  82.5113964  75.9511328 111.6887761  14.7740077  87.6117516
 111.7112542  15.7240962  87.4974442 112.1651698  14.6195793  88.4274960
  59.5017865  56.6542322  11.1606800  58.9263395  55.9136278  11.3520062
  59.2076066  57.3455793  11.7537415 105.0684548   6.9653987  91.8317223
 104.9298526   6.4941024  91.0101986 106.0124493   7.1208667  91.8623447
  46.3739157  89.7462368  87.3354816  46.0677099  88.8428211  87.4149227
  45.6021023  90.2785587  87.5282669  34.8498468   3.2068521  11.8321716
  35.0966148   3.2684404  12.7549660  34.8332242   4.1141588  11.5276253
  63.9467073  37.7151107  86.3401127  63.7935735  36.9645786  86.9141006
  64.8390437  37.5911617  86.0166836  86.2529755  11.2971877  78.9938974
  86.9506169  10.6773757  79.2068768  86.6999627  12.1386051  78.9019775
  81.7748737  78.0475378  76.7408323  81.5715694  78.0541658  77.6761675
  81.3334751  77.2672701  76.4053059  29.6750549  41.3001997  22.2252762
  29.3987659  41.5932543  23.0936157  29.4693330  42.0352823  21.6477215
  14.4410709  70.8111650   0.3603089  14.9365285  71.3052637   1.0134709
  13.7634996  71.4187319   0.0636780  76.8562889 100.3938103  81.0350800
  75.9170151 100.5189610  80.8996677  77.1433592 101.1934471  81.4759827
  68.6679792  80.1579666  87.1322441  68.0482960  79.8065281  86.4929390
  68.9871788  79.3888378  87.6042557   5.0058034  35.5210192  13.2970440
   5.6216529  35.4028303  14.0202248   4.2338231  35.0173551  13.5551178
  45.0548124  84.9420071  89.4991112  44.4957733  84.5576477  88.8238525
  44.5013523  85.5974388  89.9237537  26.5552762  23.6603720   2.8335297
  27.3042873  23.5963995   3.4260857  26.5541271  24.5735771   2.5466740
  83.2694340  96.0281849  64.9175310  83.7161922  96.8741703  64.8865414
  83.3411026  95.7528210  65.8314657  98.7698414  24.0568335  19.4551479
  99.5712973  24.3868524  19.8613369  99.0715219  23.5847694  18.6790192
 107.6228000   5.7569312  60.5575752 107.2508050   5.0581836  61.0957289
 108.1204034   5.2985858  59.8804140 104.6632815  36.1614608  73.5155582
 105.2537061  35.4126453  73.5986328 104.1846324  36.0000133  72.7024984
  56.9189599  66.9737036   2.2455609  57.3686841  66.1626608   2.4825680
  56.3114885  67.1307737   2.9684269  25.4475740  61.2713224   6.0909664
  25.8973363  60.6335527   6.6452229  26.0461906  62.0170957   6.0497200
  36.6243366  59.7465784  10.8315098  36.3354734  60.3100378  10.1136696
  36.8688443  60.3542597  11.5294850  74.7057963  35.0602340  74.8863792
  74.8239494  34.1504955  74.6131420  75.5107571  35.2752590  75.3575850
  14.8350813   2.3695850  49.8032665  14.4686797   2.1192264  50.6513786
  15.7682040   2.1693611  49.8769712  51.4783001  90.1092434  86.2083149
  52.0773363  90.2741623  86.9364548  50.6477785  89.8842907  86.6276741
   9.0863097  32.7548122  63.7401104   9.5608234  32.9441237  64.5495749
   9.7723937  32.5935364  63.0924177  88.8818692  44.8258495  60.4051161
  88.3252452  45.5715561  60.6294394  88.2693575  44.1448450  60.1270962
 110.4508071  33.0881286  43.0141020 111.2297700  33.1654906  43.5649776
 110.0927974  32.2258806  43.2252550  48.4144784  71.2032123   4.3876755
  48.1550420  72.0337827   3.9888298  49.0738130  71.4453990   5.0379479
  17.5299704  16.9045353  71.5727949  17.2703826  17.7225006  71.9967937
  18.4484911  16.7895031  71.8163490  28.4558272  16.7847073  87.9852104
  28.5614491  16.2879014  87.1738815  28.2560396  17.6751924  87.6964951
  92.7711043  75.4762054  66.7747259  93.4197745  75.7527757  67.4220037
  93.1301591  74.6693969  66.4054394  60.6780005  64.1516645   7.4787533
  60.1317669  64.3608327   6.7210591  61.3001228  63.5010965   7.1532452
 112.7459684  28.6161709  59.7426891 112.1677893  28.8729477  59.0243530
 112.9786418  29.4408250  60.1693487  13.0772018  70.5554485  48.3541679
  12.7592742  69.9824381  49.0518856  12.4500453  70.4352617  47.6411009
   3.3495006  22.0241594  87.7366734   2.9316467  21.4069200  87.1361351
   2.6986691  22.7148914  87.8613377   4.2699336  85.1697302  66.7132568
   4.8032951  85.7116438  66.1318064   3.3828735  85.2416206  66.3608503
  22.0439911  46.2617922  87.1733952  22.1738052  46.1669636  86.2297916
  22.4150777  47.1193075  87.3812389  16.1007941  29.9255800  79.5508575
  16.2254965  30.8191538  79.2311621  15.4334629  30.0059652  80.2323532
  12.2921193  41.1794233  51.7191839  12.3934174  41.1913872  50.7674360
  11.5565276  40.5869150  51.8743277  15.8613241   5.9163254  50.1036692
  16.5613353   5.2922213  49.9120712  16.1083150   6.3027668  50.9438419
  37.7239084  22.2590137  55.8952045  37.9348373  22.1772933  56.8252945
  37.0770049  22.9635072  55.8573198  28.4025788   0.1975280  82.5961876
  28.1648922   0.8092880  83.2929611  27.8816795   0.4776026  81.8435574
  87.2730789 106.4365351  63.1570148  87.0800695 105.7274974  62.5436258
  86.7567239 106.2271244  63.9353180 106.4253758  24.0987086  60.8855295
 106.9182049  23.3919787  61.3025236 106.8347268  24.2016625  60.0264215
  41.2220097  13.1417501  58.0962133  41.9433737  13.4110963  58.6648226
  40.4574728  13.1229579  58.6718559  86.2991451   5.2489781  51.7242289
  87.0241354   4.9937016  52.2947121  86.6062139   5.0450224  50.8408594
  52.8412557  56.6422490   6.8365299  53.3552945  55.8977569   6.5239155
  53.2777882  56.9123555   7.6444447  12.2642767  22.4063659  71.7229700
  12.5217140  23.0366874  71.0501719  11.3074851  22.4037194  71.6951418
  80.0637296  98.2531661  50.2607107  79.3233494  98.4799153  50.8234310
  80.0782541  98.9410288  49.5952272  31.4931464  45.9058523  81.7789936
  32.3654461  45.6916237  81.4481831  31.0664654  46.3603163  81.0525990
  96.4127289  40.9428692  60.8067989  96.6241942  41.8114233  61.1490345
  97.2630082  40.5222178  60.6790876  85.8499525  23.2208085  64.1114330
  85.0723837  23.3279467  63.5635853  86.2768339  24.0773177  64.0915298
   6.3992894  19.5616341  83.8789082   6.4299858  20.4801154  83.6111736
   6.0659468  19.5846331  84.7758961  25.9224153  16.5730834  85.8602238
  25.3087616  15.9598100  85.4557991  26.7486715  16.0917544  85.9032726
  33.7447739  26.6764975  77.2247982  33.4189582  27.3354840  77.8378344
  33.1173801  25.9566355  77.2911978   5.0733232 101.7237896  66.7719507
   5.7022857 101.4636797  66.0989141   4.2416143 101.3511038  66.4793777
  65.5033804  75.5135925  26.2348663  64.8332334  75.5338581  26.9180405
  66.3327671  75.5364234  26.7121803  88.4037875   6.3575888  78.4428263
  88.1485866   6.1627144  79.3445635  89.3408678   6.5458578  78.4944725
  42.4356113 103.1425793  24.7545445  43.2965506 103.5417779  24.6294033
  41.9131825 103.8263876  25.1737129  72.8355173  91.3039744  72.6446438
  73.1492869  90.5636657  72.1252918  73.3966174  92.0343471  72.3839617
  15.3379846  14.5418835  79.0741730  15.9803331  15.2422523  78.9597034
  15.7891750  13.7520266  78.7762070  33.1386256  22.4607944  89.7800732
  32.5040340  21.9670558  90.2994442  32.6381421  23.1958628  89.4259262
  30.0656939  69.9979734  70.4563665  30.3985214  69.9942350  69.5589018
  29.5747423  70.8166933  70.5263424  84.0204374 100.0060160  45.5964899
  84.1770110  99.7778482  46.5128183  83.2489256 100.5721349  45.6190872
   5.3519112  45.7314777  65.1055384   4.9563730  45.0852680  64.5205688
   4.6321473  46.3194323  65.3346300  11.5315664  12.7183867  60.9165382
  11.5055871  11.7703259  60.7871675  10.6305695  12.9548347  61.1368322
  35.2135825   3.4535420  78.7143183  35.7676768   2.7143377  78.9648962
  35.7876611   4.0187940  78.1974459  16.1091519  71.9473476   8.6376106
  16.7326618  71.2620492   8.3971226  16.1592508  72.5791855   7.9203236
  26.5328073 102.6919610  84.4426250  27.3087930 103.0352602  83.9996624
  26.2159681 103.4236599  84.9722195  93.8983104  88.8345910  68.3638382
  94.4744644  88.5873247  67.6405525  93.4687219  88.0177892  68.6178446
  71.9144223 101.3521755  55.5352926  72.3892478 100.9477807  56.2614012
  71.6159946 100.6142110  55.0037098  86.8828306  88.8367689  81.9626617
  87.1106658  88.3803177  81.1527443  86.4819596  89.6557367  81.6714096
  75.4249259 103.5026193  72.2289753  76.0807902 102.9399393  72.6406384
  75.3614752 103.1787500  71.3304663   9.6937388  15.0383711  61.4801788
   9.3805671  15.5371928  62.2347212   9.8434079  15.6976891  60.8025885
  37.9166341   7.4748826  65.6400537  38.7311959   7.8547871  65.3108215
  37.7259016   6.7570782  65.0362253  15.2541625   0.5415228  83.8288307
  16.1934543   0.6733478  83.9576054  15.1084065   0.7437423  82.9046631
 100.0985835  83.2853747  90.7954979  99.1514394  83.1810618  90.7045650
 100.4694078  82.5917507  90.2499676  96.5217230  96.0228885  31.3913298
  95.8120749  95.6472779  30.8702254  96.2124441  95.9635342  32.2952414
   1.7652320 102.6703865  87.7496529   1.5103220 102.4053830  88.6334133
   1.7720627 101.8553216  87.2478008  29.4124348  67.9324777   9.3555939
  30.0901104  67.6979024   9.9895966  29.2519475  67.1252496   8.8668644
  25.5813336  11.1194074  44.5387268  26.0908198  11.8849862  44.2731285
  25.6420112  11.1109602  45.4939651 102.8449915  99.0189922  71.2402678
 102.0287774  99.3911976  71.5741682 103.4996555  99.6999819  71.3948584
 100.2434896  35.3041029  41.8726254  99.3762396  34.9121380  41.9749594
 100.4415439  35.2075958  40.9411240  97.6162647  12.4687946  91.2814140
  98.0795132  12.3934186  92.1156502  98.2733141  12.8054380  90.6721592
  33.8079394  71.6574819  10.8965218  33.5499708  71.0586483  10.1957428
  34.7573865  71.7379649  10.8053887  28.3654833  16.6911232  68.5932350
  28.9825964  16.5522468  67.8748274  28.8723397  16.5052748  69.3836737
  25.6115055  23.1864715  73.2066631  26.0562563  23.4581161  72.4037695
  25.3259301  22.2899675  73.0307007  58.2849345 101.3014824  57.5323296
  58.1771658 100.7221914  58.2866764  58.7660060 102.0545316  57.8754330
  93.8248549  81.7528129  37.0083380  94.7263084  82.0579506  36.9058490
  93.3181510  82.5501514  37.1623945  51.8826378  86.0934956   0.1494610
  52.6159740  86.5116198   0.6007111  51.3278414  86.8212326  -0.1313007
  34.6008978  86.1268790   9.3475830  34.6725348  86.1341603   8.3930981
  33.8331772  86.6672308   9.5342838  17.8460765  48.2229328  68.1646013
  17.6906371  49.1199923  68.4601545  17.1208453  48.0383348  67.5677776
   7.4513603  72.9295356  25.4420101   7.8028036  72.4120898  26.1665547
   6.7690206  72.3764462  25.0615608  22.9937816  14.8176169  81.7000008
  22.4451804  14.3811703  81.0482502  23.8025665  14.3058455  81.7136955
  21.5256763  20.8946633  58.7524128  21.4876890  21.8361092  58.5836887
  21.6394067  20.8256149  59.7003174 101.8013142  18.6379826  62.3832512
 101.8626676  19.5924747  62.3456669 101.6650711  18.3707523  61.4742661
  20.1905965 106.0741380  52.9994011  19.3224954 106.4717176  53.0669546
  20.2747821 105.8383017  52.0755339  55.5231714   9.6606231  73.2007360
  55.4252148  10.6115758  73.1525183  54.7102976   9.3562621  73.6042595
  25.5341125  68.0926228  88.8228321  24.9432921  67.4765539  89.2559910
  24.9617338  68.6257982  88.2711601  12.8070581  55.0771379  83.7465572
  13.2358348  55.4736185  84.5049667  12.7817905  55.7761478  83.0931187
  91.8949843 101.7650206   6.4063275  91.6102553 101.9942124   7.2909939
  91.5188409 100.8987172   6.2505543  30.4338414  93.1831272   7.0462238
  29.5060010  93.1911762   7.2813332  30.8899153  93.3811409   7.8641617
  14.5121038  16.0194266  66.4833260  15.1012886  16.1849928  65.7473373
  15.0875223  15.7245255  67.1891260  52.9608629  96.0853589  75.8081579
  52.3009179  96.4918900  76.3697958  52.4668238  95.4738331  75.2620840
  20.3152776   2.1867757  56.1233807  19.6587253   2.6220822  55.5796146
  19.8991430   2.1043190  56.9814396  16.2372088  16.7769778  54.0761423
  15.8406925  15.9744513  53.7370872  15.5117595  17.2477508  54.4864178
  23.2303858  46.4785767  83.9885044  24.1240597  46.6814804  83.7120819
  22.9117250  45.8585644  83.3325577  50.2214540  67.3935182  12.2161972
  50.4485846  66.4644701  12.2551167  49.9489094  67.6110013  13.1076252
  95.4001854   9.0622127  89.4321823  95.5558370   8.1320292  89.2685795
  95.2956949   9.4444412  88.5608482  44.8092265  48.1156720   5.5422604
  45.1147104  47.2379662   5.3130352  45.2461154  48.3125300   6.3708794
  22.9905272  70.2544975  37.8358388  22.5346994  70.3893328  38.6666632
  23.2493901  71.1335468  37.5592589  91.6470049  29.6027613  63.1051874
  92.4972390  30.0424528  63.1027174  91.0303567  30.2720976  62.8085995
  13.8348663  22.6470804  92.3338985  13.3155847  21.9051003  92.6438141
  13.7223399  22.6378036  91.3833809  81.1147595  96.9794734   9.1497719
  81.9748069  97.3377354   9.3693173  80.9192801  96.3717492   9.8629963
  13.1437445   6.1265785  64.0312099  12.5213683   5.4649305  63.7293768
  13.9426625   5.6348407  64.2213535  58.8825346  52.1139966  22.4264061
  58.4852124  52.7941228  21.8825352  58.1505466  51.5513418  22.6790821
  93.3736373  75.3298767   4.9833309  93.9938689  74.8037679   5.4880726
  93.6834193  75.2642376   4.0800297 105.1385499  57.8227748  31.9793331
 105.6025458  57.3418544  31.2940228 104.2670775  57.4274458  32.0012581
  12.2814631  22.6392961  59.2962456  12.4979103  22.3775291  60.1911545
  11.7271459  23.4126806  59.4003534 106.0411225  49.4175196  77.6570797
 105.5676506  49.0614176  76.9052505 106.3832729  50.2567339  77.3490477
  25.5245686   8.7603188  65.7137156  24.5966673   8.6146283  65.8981228
  25.5550480   8.9539409  64.7768021  85.2531312  24.8780441  56.8647766
  84.4579385  25.2982903  56.5372181  85.8815263  24.9626374  56.1476994
  58.1752634   8.9174986  62.7686787  58.2035112   9.1050154  61.8304539
  58.7193298   8.1369525  62.8734159  90.1023350 105.3515690  70.7032919
  90.4838083 106.2223986  70.8144951  90.1512620 105.1871206  69.7615957
  55.2178810 105.6065292  67.2651482  54.9557874 106.2705447  66.6274786
  54.5028112 105.5898887  67.9012537  26.3180269  70.3568490  43.5126602
  25.7317985  70.7934864  42.8946602  25.7421196  70.0492914  44.2126381
  60.8830214  17.3224032  53.3936167  61.8049097  17.5778282  53.3603001
  60.7862234  16.8844950  54.2392540  24.1805363  44.2185259  72.7425623
  23.5200906  43.9575958  73.3843994  23.6860943  44.6762419  72.0626688
 111.6736205  13.7363422  80.0058460 110.8008151  13.5690391  80.3614426
 112.2680800  13.2951236  80.6126213  56.8309571   8.1128818   7.1744454
  56.2254824   8.8047821   6.9081509  57.6815082   8.5481340   7.2323525
  28.1439400  63.7159729  88.3802795  27.2415709  63.8184929  88.0778694
  28.3757091  62.8182220  88.1424713 100.1915668  32.1360683  20.1764274
 100.7718287  32.2689986  20.9259987 100.3902112  32.8641748  19.5876729
  21.6786504   9.0213430  68.3821726  21.8790770   9.2326772  67.4703598
  20.7917452   8.6622965  68.3554363  57.9462385   5.4266500  83.9986992
  57.1173382   4.9638000  84.1208744  58.2095718   5.6836307  84.8823547
  69.1266609  74.8423178   3.5878575  68.6298085  75.6550081   3.6822140
  68.4757138  74.1493638   3.6988365 110.7485603   9.2962730  56.9527435
 110.0606497   9.3866754  56.2933207 110.8447294   8.3512282  57.0705271
  33.4503603  23.6468410  43.7463856  33.6442208  24.3010879  44.4176579
  34.3063474  23.2982087  43.4974384  16.8619311  18.2590985  85.4188061
  16.1536109  18.4414101  84.8013306  17.3929918  17.5919521  84.9839211
 111.0900049   1.9908960  74.1960764 111.9398303   1.7507052  74.5653152
 110.7300870   2.6251230  74.8161173   2.1610844  24.5870423  59.1162634
   1.6329469  25.0741410  59.7487497   1.8124515  24.8459888  58.2632494
  70.2101160  75.2458675   6.7813503  70.4926968  76.0373337   7.2395622
  70.3392912  75.4467232   5.8544171  10.2774048  13.5961795  66.1236191
   9.6104318  13.7527049  65.4551315  11.1075652  13.7636697  65.6775141
  18.7995887  13.1590927  84.1647720  19.3112230  13.4528458  84.9185467
  19.1816986  12.3132026  83.9309120   9.8706292 105.4242039  89.3623543
  10.2666759 104.5658041  89.2122650   8.9503383 105.3079823  89.1261482
  75.0469778 105.2099468  39.2582059  74.6162686 105.6206401  40.0079060
  74.4095802 105.2804630  38.5475850  26.1737657  25.6354070  62.2442865
  25.4989791  25.9338164  61.6344976  25.7533765  25.6721735  63.1034470
  17.4715531  20.7395101  26.3219810  16.6549802  20.6554556  26.8142962
  17.5345254  21.6730666  26.1201429  47.2258074  61.8476899   5.9790814
  46.6358299  61.9669576   5.2348053  48.0966962  61.7853619   5.5867779
  31.2749076  12.3391926  57.3564339  31.9700503  11.6918552  57.4745893
  30.9363556  12.4908578  58.2388258  42.8505945  25.2773046  47.9371929
  42.3322916  24.5232797  47.6560497  42.3027658  25.7149792  48.5887718
  71.1440850  65.7303686  -0.1427353  70.5658007  66.0823591   0.5339634
  71.7934728  66.4190907  -0.2848327  87.8155265 104.9431603  72.2253418
  88.4423599 104.7546463  71.5269327  88.3478591 105.3054025  72.9336023
   9.1956449   3.9474824  71.1477041   9.2132837   3.3176836  71.8683147
   9.5762211   4.7444597  71.5167856  75.8245395  16.6727144  11.8073761
  75.4108944  17.1213133  12.5448620  75.8430830  15.7516319  12.0671856
  51.2764263   7.1692896  89.5513821  51.5062428   8.0291164  89.9036789
  50.4841185   6.9195884  90.0269127  58.0896116  97.7468903   2.2224247
  57.4513055  98.1073172   2.8379643  57.6388825  97.7546580   1.3780224
  44.1603708   3.6179754  84.1838646  44.3379259   4.1078413  83.3809090
  44.6057129   4.1142315  84.8706245  51.6391683  90.3334768   6.3592827
  51.5550912  90.7555683   7.2142708  52.3429240  89.6951516   6.4754784
  69.1575385  62.8478087   7.6808273  69.4417358  62.3743023   8.4626591
  69.3309904  62.2438527   6.9587624  35.3402567  22.9779053  62.4122429
  34.9478006  23.5768080  63.0474758  36.2778354  23.1663871  62.4528790
  93.6646987  84.9195535   5.7379830  93.9278603  84.3360074   6.4496338
  94.0152169  85.7746394   5.9873688  58.0866075  50.8940009   2.3926270
  57.8529073  51.3882699   3.1783211  57.6941908  50.0313107   2.5268185
  37.7325964  53.1297016  57.9177666  37.9981327  53.7565088  57.2448397
  38.4979415  52.5672340  58.0365467  36.5382981  36.0760069  68.3157158
  36.6528535  36.7156339  69.0185595  36.6836166  35.2287984  68.7368488
  45.8850146  84.2927701  16.0032093  46.8092186  84.1089232  16.1713707
  45.6254298  83.6400707  15.3529560  23.5174489  54.8383284  83.8728237
  24.0414190  55.5341578  83.4759521  24.1616297  54.2113352  84.2016697
  57.7098236  91.2211741  80.8708572  58.0897317  92.0094729  80.4829407
  56.9424198  91.5354455  81.3489342  47.3817587  46.2888908  63.4944534
  48.1197691  46.3345575  62.8865957  46.9400692  47.1326780  63.3987427
  41.6144521  58.9419783   0.5913078  41.7376802  59.3667932  -0.2575672
  42.2400127  58.2174761   0.5896198  64.9042819 103.4028134  79.6089506
  64.0183446 103.5145379  79.2641830  65.4363105 104.0201009  79.1068220
  28.7261486  21.0780835  92.4470520  29.1821623  21.9051981  92.2915936
  28.4984446  20.7620978  91.5726757  71.6852737  63.0536903   0.9874260
  71.4566851  63.8013227   0.4351341  71.6478468  63.3955003   1.8807327
  52.5351715  39.7940660  84.7972965  53.1281185  40.3305626  84.2711735
  51.6776466  39.9144673  84.3893909 111.8624498   0.1287109  10.5807125
 111.8170025   0.2830917   9.6371376 112.6956202  -0.3246134  10.7093823
   7.3211861  64.0182161  56.0750818   7.9978949  64.5350838  56.5122795
   6.9483513  64.6131229  55.4244614  75.0234244 102.4084169  87.1583748
  74.6329300 102.5584174  88.0193329  75.2626078 101.4815891  87.1620464
  16.7540729  45.4051304  59.3535423  15.8682859  45.6532383  59.0888548
  16.8040299  45.6462526  60.2785254  25.3767824  14.0699089  87.8779793
  24.6502185  13.4467494  87.8751183  25.1140428  14.7412527  88.5076618
  54.4589139  96.6743691   5.8726704  53.9242757  95.9354861   6.1632645
  53.8241745  97.3331578   5.5910122  85.0993953  96.1262298  81.0972214
  85.7206581  96.8174959  81.3261604  84.2803255  96.5891076  80.9208679
   8.0507147  32.1701479  91.2234879   7.8991586  31.2677479  90.9425354
   8.8735372  32.1341586  91.7112350  14.6419227  34.8642612  38.7178016
  15.5257893  35.0761652  38.4176207  14.5098662  35.4205990  39.4854474
  16.4751101  53.9150429  78.1702614  17.0546544  54.6767187  78.1559372
  16.7538536  53.3878803  77.4215031  32.9063201  52.0414352  77.8720474
  33.6419296  52.6526356  77.9113865  32.9015160  51.6169024  78.7299395
  66.4910889  12.6885927  88.1936646  66.4989614  12.4319303  87.2715569
  65.6496286  12.3728192  88.5230064  61.1368204  96.1833842  11.6038143
  60.8770800  95.2707608  11.7298424  62.0829488  96.1853631  11.7489540
 102.6391040  14.4573772  77.2345495 103.5702752  14.6320629  77.0980310
 102.6127635  13.5755074  77.6058197  15.2004290  19.2352569  80.1165390
  14.3165195  19.6015966  80.1435852  15.5521190  19.5202684  79.2731428
  23.8932943  45.8591747  52.2219658  24.3765664  46.5595102  51.7835474
  24.4270658  45.0767803  52.0834684  47.3975987  87.4992878   3.9080250
  48.0212236  87.3830349   3.1912243  47.2445113  86.6139967   4.2382633
  44.1788864  32.2291350  83.1545258  43.5952330  32.0832253  83.8990307
  44.2175436  33.1812119  83.0634880  25.3406858  -0.1200731  48.7151146
  25.7674694   0.6546339  48.3491659  25.2630734   0.0685180  49.6503353
  43.0368806  84.5354469  10.9298718  43.9319415  84.5300443  10.5906498
  42.8952480  83.6432059  11.2462151  11.6319322  80.6608630  59.3050385
  11.2159681  80.5852485  58.4462690  12.0586394  81.5175558  59.2898846
  35.0366831   4.5812577  81.9583893  35.1963472   5.3213745  81.3727570
  35.8944035   4.1695181  82.0633602  43.6939568  88.9559634  15.7550251
  43.9977539  89.6699984  16.3154709  42.8656787  89.2711813  15.3933346
  18.1869149   4.4567874  48.6427593  18.5351729   3.5945264  48.4159231
  18.9624774   4.9901521  48.8167048  50.8024836  34.3609238  71.3942480
  51.7428160  34.3843341  71.2168789  50.4973412  35.2438688  71.1856174
  42.4929047  63.4509039  52.0419216  42.3306894  64.3800974  52.2047663
  42.9307652  63.4297419  51.1910057  32.0323248  81.4771230   2.8736508
  31.8247581  80.8038123   3.5215771  32.6540042  81.0552413   2.2805607
  22.2614074  41.5439177  54.2460871  22.3222208  41.6963911  53.3030701
  21.6216588  42.1869040  54.5519066  26.0824895  12.6181650  78.8782120
  26.8694949  12.2696424  79.2970037  25.9182096  12.0245576  78.1454945
  87.7203058  48.4457016  71.2632132  87.7987502  49.2840004  70.8078718
  87.4438904  48.6794043  72.1493387  22.7684116  52.6688337  90.1986599
  22.6730371  51.8287706  89.7498417  23.2133389  52.4533176  91.0183048
  59.6419144  62.5742109   9.7031319  59.4985772  61.8018605   9.1561711
  60.1369477  63.1742121   9.1452992  73.9024759  67.7600844   4.7680390
  74.4361878  68.1183691   5.4772770  73.0882407  67.4911351   5.1933777
  30.1789975  26.9401383  82.9669571  30.4952145  27.1944284  83.8338947
  29.2853308  26.6326118  83.1186771  78.9488099  44.7650719  84.2814827
  79.3441318  44.1671467  84.9158669  78.6890839  44.2026281  83.5518074
  -0.0773457   3.9909989  62.6417494  -0.0411822   3.6556309  63.5375452
   0.6577487   4.6014169  62.5846720  66.3663555  79.3623312  12.4948895
  65.4316903  79.4915493  12.6559460  66.5301014  78.4544332  12.7501118
  41.2424079  67.1267183  14.3535912  40.3338719  67.3048468  14.5966255
  41.2574247  67.2163231  13.4007179  36.8502414  76.4630992  29.7383415
  37.3944086  76.8813903  29.0711414  36.6039164  75.6219132  29.3536770
   0.1773260  40.3040934  70.6042576   0.4345533  39.5699096  70.0465488
   0.5044574  40.0709772  71.4730930   7.9904652  58.3868742  78.1298923
   8.6392093  57.7214575  77.9005814   8.2730108  58.7123442  78.9845705
  42.3290586   9.1909063  75.5048752  43.2458353   9.4067419  75.6756687
  42.1303463   9.6279967  74.6768093  90.1437614 102.5067971  81.6119099
  90.1826820 102.9187087  82.4750710  89.2232964 102.2684861  81.5015316
 107.1368472  14.7491491  64.7629547 106.9017969  15.6654751  64.9090004
 106.9702350  14.6046746  63.8315010  12.6917613  48.3172417  71.4452696
  13.0685830  49.1463375  71.7399454  11.7685556  48.5159016  71.2888765
  49.3376113  86.7511709   1.9938481  49.7797478  86.3984139   2.7660572
  49.6883357  87.6369269   1.9007790  29.1511822  20.5368495  45.2305698
  29.8983264  20.0913215  45.6299591  29.4275975  21.4504385  45.1585817
 108.1447802  10.8292675  63.4702301 107.8679083  11.7426217  63.5434151
 109.0119855  10.8087122  63.8749075  37.5846863   1.0279141  51.6140366
  36.9837332   1.4368732  52.2368002  38.4262347   1.0099345  52.0697832
  63.6150537 103.2422487  75.1797104  62.7120028 102.9405195  75.2781487
  63.7512884 103.2855461  74.2332411  36.0188532  32.6552820  76.3528490
  36.3283777  33.2679892  77.0199490  36.6239572  32.7727485  75.6205320
 111.5281798  17.8066051  74.5736647 112.0602888  17.5596607  73.8172865
 111.8007283  17.2036767  75.2653503  31.1893082  28.9903212  91.3899612
  31.2715769  29.8372006  91.8284321  31.0397077  29.2102146  90.4704571
  34.4401575  72.9190249  16.8711388  34.8771630  72.2113819  16.3973248
  34.2763496  73.5873587  16.2057602  40.0800419  46.3957834  71.3151646
  39.2762852  46.2432432  71.8120956  40.0140762  47.3060465  71.0265350
  83.1596852  60.9952034   2.5224507  83.5405064  61.8403639   2.7610123
  82.9253245  61.0901315   1.5992558  23.7308526  24.1749740  90.4252720
  24.6855593  24.1788697  90.3563309  23.5338664  24.8623776  91.0615921
   8.3041614  16.5970421  67.9844618   8.9541942  16.8944383  68.6210537
   8.7505507  16.6582012  67.1399355  11.2840915  48.9950228  90.8998489
  11.4068949  48.0612516  91.0707855  10.3550041  49.1496038  91.0705376
  34.8901868  39.8136044  52.1145391  35.4574227  39.4617391  52.8005934
  34.9596572  39.1817665  51.3988686 100.4243515  14.8491395  55.6012726
 100.1714633  14.9628711  54.6851158  99.6380113  14.5063663  56.0260153
  43.4597492  20.8977413  75.2828026  44.1676140  20.7911086  74.6473551
  43.5106134  21.8166208  75.5460548  65.2417613  88.7417920   4.4368374
  64.4406176  89.1321523   4.7861492  65.7921649  88.5956271   5.2062046
  33.1567049  47.1804953  41.1097050  33.7023115  46.9895315  40.3467655
  33.6518264  46.8325853  41.8513584   5.0091553  31.2480640  34.5023203
   4.8824000  32.0951438  34.9296594   4.2357656  30.7390952  34.7453237
  20.0133754 102.6195557   2.7840912  20.2977002 102.8932698   3.6561405
  20.6130803 103.0652173   2.1857845  78.5695649  61.5449001  29.3650639
  78.3116723  62.2719438  28.7983811  79.5090390  61.6684301  29.5005715
  42.1357298  31.3516831  69.4908190  42.0631504  30.5552244  70.0167656
  42.9273319  31.7813563  69.8148298  64.1060282 103.5035546   7.6209271
  64.1336108 104.1988213   8.2782471  63.2550383 103.6095746   7.1957123
  98.9294647  53.2227039  79.3113470  99.5632814  53.3522749  80.0168419
  98.7535070  54.1042757  78.9825487  20.8105922   7.2884148  58.5687208
  20.8335185   6.8912673  59.4393444  19.9184561   7.1336466  58.2582855
  45.0661380 101.4070447  13.1409371  44.2285705 101.8467600  12.9947769
  45.0226010 100.6214983  12.5957310   1.8425569   6.0751528  62.4167824
   1.8378311   6.9842684  62.1172523   2.4080679   5.6202823  61.7926645
  47.1076059  51.7221928  80.7468605  47.5575924  51.0571575  81.2679005
  46.3260889  51.2792015  80.4163742 107.5403623  56.9342041  64.5029545
 107.5420855  56.4162874  63.6979771 108.0705063  57.7033186  64.2940474
  30.6424212  34.5341682  86.0886669  30.2072430  34.6173906  85.2401829
  31.0141206  35.4007673  86.2532330  62.4843694  80.2201707  14.8612988
  62.4266649  81.1564906  15.0515854  61.5754319  79.9200852  14.8574364
  72.2734810  73.2598991  19.0135395  72.2168113  72.3205848  18.8382923
  71.6631652  73.6567409  18.3920395  18.5422635  29.0609741  71.6752958
  18.8098586  28.6507702  72.4977016  19.3178761  29.5397091  71.3829422
   8.3817875  27.0224714  85.5967522   9.1972035  26.6493702  85.2619076
   7.8566080  26.2629437  85.8488178  25.1950645  -0.1464265  58.5424089
  24.3962336  -0.1812852  59.0686083  25.2993321   0.7802328  58.3263922
  52.1726227  21.4819360  88.1723499  52.3603821  20.5811667  87.9085445
  52.2568274  21.4747667  89.1258144  17.5031853   1.6926143  58.0793953
  17.6165450   1.8730181  57.1462059  18.3931637   1.6849065  58.4316921
 111.7577217 102.0154507  31.6454172 112.1233938 102.4778438  32.3995447
 110.9204958 102.4494368  31.4812779  46.8067242  70.5897565  13.8295757
  46.9891704  71.1690302  13.0897152  45.8810163  70.7350893  14.0249550
  32.3112727  79.4386179  24.3633091  33.0597378  78.8621671  24.5173752
  31.5473116  78.8982518  24.5648110  24.8378564  58.4084375   0.5686104
  24.0492547  58.4610332   0.0286305  25.0973619  59.3199385   0.7029736
  95.5823133 103.8463083  52.4761486  96.3974569 103.9549089  51.9862700
  94.9070571 103.7653110  51.8025780   8.5128248  25.9714794  43.2353163
   9.2698729  25.5623412  43.6545038   8.5902905  26.8999672  43.4547281
  20.2588748 105.4567387  76.9654703  19.6664857 104.9067855  77.4781704
  19.7907161 106.2857731  76.8666601  51.2857259  71.7021174   5.2823841
  51.5660799  71.1989148   4.5179093  51.6181935  71.2062569   6.0305893
 101.1994574  87.1379150  85.0913715 100.3932164  87.1572936  85.6069565
 101.9007323  87.1651126  85.7422924  80.3273252  95.2650369  67.2212505
  80.1246474  94.3742323  67.5069475  79.4809005  95.6341124  66.9690990
 109.0782826  18.3183324  78.0147982 109.1928707  19.0352559  77.3909998
 108.9652739  17.5408483  77.4680042 107.4363129   6.8957388  87.5589275
 108.0637191   6.4748430  86.9711781 107.3796914   7.7974582  87.2428131
 109.8686857  15.2726233  74.5596218 110.3773181  16.0823596  74.5165873
 110.4783554  14.6253645  74.9140072  32.5941968  20.0939679  70.2690029
  32.7581620  20.8187914  70.8723068  32.9979110  20.3709555  69.4464922
   8.2705235  31.6501355  77.4387980   8.5996342  30.7638025  77.2893620
   8.4122336  32.1016908  76.6067839  29.1343403  27.2585821  89.1482449
  28.3515882  27.8080773  89.1880512  28.9166617  26.4927816  89.6796513
  58.4965516  63.8939388  14.0626728  58.4258819  64.6586735  13.4913361
  59.2026616  63.3733339  13.6797630  56.9980049   6.1991507  61.0562420
  57.8187561   5.8843768  60.6774044  57.0662594   5.9855014  61.9867945
   4.8043361  28.3998704  66.6590929   4.1772270  27.6823831  66.5686560
   5.4108679  28.1037235  67.3378038  42.1642828  36.0610175  68.6637545
  42.0869780  35.4168177  67.9600048  41.3584805  36.5746307  68.6078835
 100.3571235  27.4576831  87.5762939 100.7998334  28.2796764  87.3651886
 101.0275803  26.7858505  87.4523640  70.8103872  79.7829444   7.0439255
  70.0820089  79.2139990   6.7949307  70.4995967  80.6677301   6.8521130
  28.5169410 104.6362641  89.6731949  27.6646089 104.9648929  89.9591446
  29.1380834 105.3109003  89.9475574  29.8584199  26.5075731  63.7273502
  29.8045254  25.6670499  63.2725430  30.1585007  26.2843251  64.6084547
  24.3272018  41.5741730  25.5299497  23.8827801  40.9035444  26.0485840
  25.2487922  41.3158798  25.5436301  21.1222458  77.6515102  63.2828999
  21.2387466  78.5797739  63.4853601  20.2303886  77.4540710  63.5689783
  96.2824986  97.1968520  80.5201149  95.3717611  96.9035733  80.5479908
  96.3805554  97.5917173  79.6536827   7.8614646  28.7889600  87.5761509
   8.3074749  29.5514965  87.2075844   8.2451010  28.0419087  87.1168423
  99.2136691  40.9067249  30.4382730  99.2046200  40.5722094  31.3350725
  99.4968985  40.1620626  29.9077201 105.7145683  25.3679013  79.5778370
 105.0772612  25.4562473  80.2865410 106.1965422  24.5679140  79.7874880
  13.4847653  19.6416807  53.1596375  13.7216341  19.2653239  52.3120070
  12.6112676  20.0085521  53.0231190  23.5538483  38.2257438  90.8698750
  22.6082110  38.0829978  90.9102440  23.9045525  37.4084449  90.5159569
  66.3105918  81.6109831   1.3863766  65.9921552  82.1412523   0.6558621
  65.5181218  81.2492449   1.7830765  43.1391716  53.2416630  84.0618420
  43.8712788  53.3830070  83.4616184  43.4186316  53.6505651  84.8809528
  97.1242953 100.4349453  29.9787342  97.7971698  99.7554190  29.9373924
  97.1405650 100.7331116  30.8881676  19.4199777  25.7553220  48.9994049
  19.1006219  26.1364508  49.8173189  20.1108837  25.1508641  49.2705393
  46.1445951  81.3589764  65.4623842  45.6476545  80.5588627  65.6329536
  46.8161011  81.3738346  66.1443615  55.9462833  42.9685307  79.5003796
  55.5350256  42.2301340  79.0510845  56.7710495  42.6161718  79.8347902
  45.5869055  42.1241713  92.2902775  45.3749371  41.2082386  92.4702072
  44.7409916  42.5720310  92.2994137  36.6332722  26.2793875  87.4034309
  35.9958601  26.0811973  88.0894756  37.0577574  25.4409814  87.2214413
  23.8598847  96.2308216  58.5794306  23.8516140  95.3214741  58.2806683
  24.5783424  96.6359806  58.0937386  33.5977352  79.9381335  16.1741078
  33.5685904  79.1230066  16.6750538  34.4981323  80.2476938  16.2725460
   5.6896079  57.1842051  76.8412685   5.9879768  58.0479240  77.1262217
   6.2112999  56.9959307  76.0611248   5.0308388  43.0545521  81.6891670
   5.4217535  42.1845818  81.6081619   5.6054115  43.5196304  82.2972775
  21.2854600  58.4562063  86.3583565  21.2747455  58.8792562  87.2169209
  20.9420109  57.5774908  86.5200138  53.9742708  29.6713614  54.6367168
  54.0403414  30.2948403  53.9134312  54.1890049  30.1845407  55.4156685
  39.1290069  30.7180977  78.3601093  38.7674189  30.0155425  78.9003897
  38.8722801  31.5228200  78.8103819  15.1122797  33.4354472  74.8628664
  15.6204855  32.9913902  74.1840601  15.1052678  32.8213549  75.5970812
  21.9405437  27.7087593  72.8937149  22.5544953  27.8023624  72.1653366
  22.0086718  26.7883658  73.1476164  42.3063898  31.3667989  43.8099575
  41.6796827  32.0578384  44.0242767  42.6302052  31.0654402  44.6588135
 111.1050715  61.2736893  88.6254883 111.5610342  60.4558325  88.4268856
 111.7806303  61.9480228  88.5539150   6.8300915  17.9577124  90.1075649
   5.9216261  17.6615512  90.1642132   7.2095025  17.4331212  89.4025230
  43.6484671  15.2221334  82.9032612  43.0744410  15.1855195  83.6683750
  43.2860947  15.9261692  82.3654461  27.5597596  59.9682951  84.5535183
  28.5144997  60.0250483  84.5150280  27.2571826  60.5410099  83.8487625
  86.2849856  97.4413712   4.5886528  85.8586217  97.6699955   3.7627136
  85.6002189  97.5472863   5.2490437 104.7503029  31.1131835  59.1300583
 105.0009756  30.4330492  58.5049105 104.8337756  30.6938624  59.9864674
  23.1512308  62.6950312  91.1700630  23.9242363  63.2447290  91.0414982
  22.4286914  63.2100391  90.8109951  40.5914406  95.8305151  15.4076111
  39.9361438  96.4960082  15.6172192  41.3998849  96.1578782  15.8019268
   3.0872810  64.9480963  49.2257929   2.5414053  64.4824076  48.5922432
   3.7705755  65.3594732  48.6965370  69.8466183  84.7306068  -0.0887382
  70.4342676  85.4855902  -0.0587547  69.6994425  84.5050223   0.8297836
  14.5067751  16.3229382  91.7452812  14.9580956  16.9847631  91.2213326
  15.1759219  15.9964788  92.3468685  35.0207853  32.5256777  86.9452953
  34.4436955  32.1892452  86.2597179  35.8705282  32.1255183  86.7607880
  56.7495966  27.8106666  84.5113659  56.0293150  27.2129536  84.3109512
  56.6980410  27.9387665  85.4585552  22.0725060  76.0631037  66.6724062
  22.5001979  76.6588688  66.0572815  21.1469150  76.0927391  66.4302635
   9.1045362  47.6282644  72.5392866   9.0920997  48.1914520  73.3131695
   9.3020380  48.2214832  71.8145037  99.2309903   2.2821805  77.4865770
  98.6639439   1.5767637  77.1750021  98.7091874   2.7335849  78.1500435
  32.4679112  51.5681171  81.2093258  33.2870197  51.9570780  80.9027290
  32.6889396  51.1809063  82.0563507  13.0849910  43.1691647  54.7614717
  13.6229348  42.6374006  54.1748953  13.5249460  44.0189266  54.7854424
  72.4193431  70.5873866   8.3921158  72.5191975  71.0253508   9.2373669
  71.8569494  71.1722381   7.8842842  76.8228174  64.5176919  19.8179161
  77.5871039  63.9520354  19.7077763  76.5976191  64.4382305  20.7448494
  58.2521082  95.5858786  11.7141354  58.6087752  94.8044522  11.2917626
  59.0225554  96.0731204  12.0060837  20.9557247  16.8439591  79.7377253
  21.5067530  17.2946560  80.3776264  20.5200124  16.1552191  80.2397442
  89.2040253  97.9360278  16.2758934  88.9864970  98.3351595  17.1182835
  89.6605445  98.6261208  15.7946503  43.3269119  58.3558226  88.7940693
  43.2427931  59.2078733  89.2220497  44.2534828  58.2949448  88.5617065
 110.4529525   4.7146303  45.1015770 109.7070028   4.6430714  44.5060265
 110.0648166   4.9492771  45.9445011  42.0084715  25.1097107  56.6020203
  41.3248348  24.4921827  56.3421392  42.7656460  24.5589781  56.8010426
  35.9495761  86.0080583   4.1883480  36.5122088  86.7727382   4.3105900
  36.2179453  85.6457670   3.3439839  19.2532849  45.0590706  75.8646917
  18.5028529  45.0014019  76.4560938  19.2655826  45.9734297  75.5817986
  86.2030958  55.1783943  51.9085121  86.8192838  54.6613169  51.3896942
  86.5900205  55.2048063  52.7836227  28.9014104   1.6479332  23.1924450
  29.3230060   1.3251430  22.3960220  29.1881231   2.5584537  23.2630455
  40.9203768  40.6710386  88.3084202  40.8890724  40.0218725  87.6056957
  41.0377979  40.1550817  89.1060638  81.6944075  82.9637558  17.9179299
  81.4865638  82.8012664  18.8380634  82.3899413  83.6209424  17.9419434
  34.3428946  33.3492398  47.6703024  34.5209122  32.4718857  47.3314953
  34.4618273  33.2692075  48.6167049  69.3483091  86.0398181  32.3325932
  70.2204467  86.3862212  32.1438801  68.8301993  86.2608249  31.5586769
  49.0443910  96.8622668  31.0152542  48.2397056  96.9258292  31.5297138
  49.0858770  95.9440835  30.7479584  53.7255478  28.6294341  51.7141724
  53.1084442  27.9165173  51.8789864  53.6845160  29.1690636  52.5036955
  25.1453376  23.1055498  81.6946507  25.7623625  23.7818146  81.4150429
  25.4921961  22.7960205  82.5313759  26.6568947  36.4836168  32.0782185
  26.0962725  36.4314938  32.8523088  26.1067605  36.1658883  31.3622332
  42.1903658  55.6469440  88.6980438  42.2425175  55.4271889  89.6282101
  42.6765871  56.4675808  88.6181831  66.2809802  87.8891332  19.5906174
  66.5965463  87.0288928  19.8674595  66.0334421  88.3269317  20.4050457
  25.4097056  42.1663857  60.6410456  24.8801136  42.9559565  60.5299520
  26.3042188  42.4492884  60.4511976  14.1152406  35.6598568  73.8466024
  13.9729369  36.3179731  74.5269442  14.5298016  34.9283051  74.3039894
  16.8933547  27.8416085  91.9777870  16.7056596  27.1510744  91.3420486
  17.5159717  27.4440002  92.5864601  39.0524244  24.3973899  89.2162228
  39.1191220  23.4447742  89.1505909  38.2148147  24.5492530  89.6539211
  29.5516419  18.6085081  62.8500605  30.3288078  18.1305921  62.5605059
  29.7205210  18.8044870  63.7716389  73.0931426  99.9865944   0.1205933
  72.6427413  99.7799666   0.9395420  72.6915813 100.8040459  -0.1739490
  74.1891409  68.3987362  24.5934403  73.9503933  68.5721023  23.6828530
  73.3866955  68.5665543  25.0875580  56.7566181  77.5314934  19.2383778
  56.0070635  77.0165904  18.9395821  56.4913476  77.8656943  20.0952160
  33.6272645  17.8431582  64.3035412  33.0881238  17.0609117  64.1867113
  33.1449294  18.5360444  63.8524389   8.8894415  40.0792742  54.4330692
   9.1387343  40.5678701  55.2175140   8.1999296  40.6075382  54.0308952
  19.2808509  64.9754143  70.9924889  19.6304774  65.8130932  70.6887007
  19.9845397  64.3479919  70.8269596  55.6704212  77.7931530  24.8424732
  55.3740621  77.2534330  25.5753433  56.5415300  77.4558909  24.6335327
  99.0161060  22.6051545  73.0482721  99.7754036  23.0669928  72.6927376
  98.2973336  22.8380561  72.4606037  55.0713873  12.3148930  72.7970314
  54.4264030  12.8912711  73.2069302  55.5144310  12.8695500  72.1549273
 102.1653034   5.4986078   9.1277992 102.5949790   5.4543240   8.2736027
 101.4521219   6.1251194   9.0049660   8.2576829  61.6944838  86.1822414
   8.9349419  62.0704985  86.7445278   7.5136673  61.5504408  86.7669868
  44.3699694  39.3395281  89.3803024  44.5611811  39.0373540  88.4924126
  45.0015116  38.8776326  89.9317074  50.1602077  35.2071977  90.1274204
  50.9945583  35.4450297  89.7230339  49.5994425  34.9601674  89.3920612
  57.9283142  54.5687962  67.2593927  56.9891548  54.5348215  67.0775652
  58.2948542  53.8364363  66.7638874   1.9474603  50.9936953  74.8258972
   1.4824338  51.2032938  74.0159273   1.3847126  50.3576183  75.2674389
  10.0583363  23.3865047  80.7440567   9.6527690  22.6948857  80.2211761
   9.5548910  24.1727805  80.5329990  80.2877665  77.6777036  17.5843346
  79.7138692  76.9607742  17.8543102  80.6405116  78.0238111  18.4041035
  32.5812793  39.8508000  91.9257545  32.9586196  39.3167686  91.2267208
  31.8152761  39.3566298  92.2177601  39.6190119  48.7715816  70.6656933
  38.7481213  49.1686153  70.6534958  40.2087975  49.4799089  70.4075098
  24.6828270  84.4431877  70.2044296  23.9008236  84.0272999  70.5673933
  25.3810859  83.8035774  70.3443336  19.7954619  27.8647089  81.5425014
  19.5215392  26.9905567  81.8200970  20.4975152  28.0996561  82.1492577
  13.9262676  37.2527266  64.3271208  14.3916845  36.6699719  63.7271070
  13.0000591  37.0935297  64.1453934  13.9351773  33.8307476  69.8871183
  14.7054648  33.2891679  70.0591087  14.2174113  34.4383812  69.2034817
  46.3928378  92.6405580  40.4369461  47.3491914  92.6715071  40.4111969
  46.1491586  92.1238525  39.6689236   9.0615046   9.7625870  82.8764915
   8.6629599   9.2208642  82.1953678   8.6957890  10.6354308  82.7328682
 103.8776757  29.0922434  14.2704022 104.2700555  29.1648657  13.4003460
 104.5679952  29.3774206  14.8690331  40.4746866  46.6396093  54.2183352
  40.3791523  47.3867178  54.8090410  41.3913107  46.6668892  53.9439535
  98.7915469  79.8265059  18.1014740  98.5836697  80.1586158  18.9748108
  99.4146968  80.4603369  17.7462589  59.4704581  85.6215746   2.2149765
  58.7877346  85.5541737   2.8824913  59.0330149  86.0241277   1.4647591
  21.2888026  64.0006113  62.3055553  20.5507040  64.2117882  62.8772593
  20.9554625  63.3141279  61.7277527  19.7209740  30.8756614  68.2527590
  20.1637268  30.5374408  69.0310955  19.0441000  30.2265334  68.0611706
   9.5494610  57.7786160  70.6943893  10.2126348  58.4569120  70.8222246
   9.8381621  57.3054314  69.9140167  36.8311238  58.8128853  55.0928831
  37.7332091  58.9630222  54.8101664  36.4487720  58.2760525  54.3987322
  41.6986079  84.4496996  15.3780663  41.1566437  85.2378805  15.3423130
  42.4792794  84.6726282  14.8710262  85.9496500  17.1975262  16.1237538
  86.2120892  16.3234026  15.8352005  86.2893166  17.2672636  17.0159352
  28.7808108  24.0501142  62.1586704  28.7298584  23.1758404  62.5450420
  27.8898501  24.3936348  62.2251177   8.9707160   5.3463846  81.8377399
   8.5006112   6.1759686  81.7539310   8.3270377   4.6807629  81.5951347
  54.4924021  28.4017611  81.7120171  54.8273706  28.1603551  80.8484459
  54.6096992  27.6141381  82.2431660  73.9545252 103.4772349  84.0419197
  74.4192911 103.7174598  84.8434925  73.1048692 103.1567610  84.3445969
  55.6847561  80.4500492  11.9755184  55.1580335  81.2187250  11.7565834
  55.9207261  80.0721891  11.1283028  25.4192328  47.4949312  73.1485176
  24.7200441  47.2797871  73.7658358  25.9808397  48.1055164  73.6260223
  38.3271718  79.4121361  70.3795147  39.2046428  79.0458822  70.4896832
  38.3778644  80.2800274  70.7800484  83.5808421  87.4197299  16.4830410
  83.6021615  86.9709332  15.6378472  83.6364461  86.7159255  17.1294129
  -0.1948361   9.4755709  40.0118732   0.2537413  10.0200021  39.3648791
  -0.0267361   8.5773563  39.7269440  70.5787850  95.1579936   3.7680065
  70.7112861  95.1141150   2.8210365  69.9289490  94.4793208   3.9506256
  53.8534070  89.1020448  26.8530857  53.2387079  88.8770111  27.5514614
  53.4867931  88.6916502  26.0698902  20.8145928  50.3937483  81.1822605
  20.1143408  49.9985790  81.7016125  21.5870690  49.8639202  81.3792324
 101.3888575  27.7970392   0.6887066 101.0268738  28.6778528   0.5919277
 100.6304838  27.2465116   0.8836949 102.4800040  13.8010151  21.5773403
 101.6843225  14.3104488  21.4237320 102.8428985  14.1617186  22.3863136
  30.2853966  48.0672312  83.4013653  30.7434249  47.4971342  82.7837658
  29.3701458  48.0357409  83.1228733  60.9016514  28.0120850  61.6707993
  61.6654921  28.5343671  61.4258385  60.4658794  28.5284472  62.3488092
 100.8348237  36.5929747  72.8444481 100.1108430  36.6958690  72.2267914
 101.5111278  36.1338353  72.3464155  88.4308196  89.5507653   1.4571106
  87.7127601  90.1787241   1.5364277  89.1010094  90.0153382   0.9558594
  33.9953256  28.3916950  59.7013474  34.7214484  29.0151358  59.7185564
  33.4223652  28.7105370  59.0040064 105.2824066  98.4374184  69.6434498
 104.5635102  98.5033978  70.2719927 105.4605649  99.3423868  69.3874693
  71.1965824  91.7952402   2.9161560  70.8692742  91.7257483   3.8129723
  70.4192448  91.9874032   2.3917019  36.0470986  40.2661610  91.4132309
  35.9517455  39.3137383  91.4075851  36.9783473  40.4126549  91.5791988
  98.9548121  28.0625939  83.3063316  98.2284163  28.0366206  83.9291573
  99.6901725  28.4109902  83.8104153  26.2403965  24.3065572  58.2530689
  26.0231018  23.6766148  58.9402294  27.0403457  23.9617538  57.8563023
  10.9314096  66.5675068  69.0929794  10.3276050  65.8252907  69.0652752
  10.7416916  67.0605278  68.2947493  20.6927466  47.3101854  84.4971275
  20.1391053  47.1368027  83.7357807  21.5855479  47.1736526  84.1801071
  19.5538962  46.9412279  78.5612488  19.2403400  47.2908878  79.3953085
  18.8610017  47.1548223  77.9363441  89.1534163  30.8167440   2.9624283
  88.8851823  30.4138357   3.7882340  89.9752559  30.3800089   2.7386677
 105.7456057  58.2575226  53.4509850 105.6931315  58.9162350  52.7584696
 106.0341124  57.4620438  53.0035305  54.7056293  58.1075001  85.0846195
  54.6859455  58.0072880  84.1328812  53.9669132  58.6839724  85.2800846
  29.9452090  65.1089048  85.6036854  29.5207882  65.8228731  86.0794544
  30.8743787  65.1992369  85.8151436  69.8916436  54.5126637   9.0387833
  70.3914715  53.8252720   9.4791233  70.3102518  55.3278036   9.3154537
 113.3346249   9.6994001  29.7487557 112.7749707   8.9233715  29.7204506
 112.7835776  10.4046184  29.4092762  99.3291856   1.0049660   4.9106991
  98.6153223   1.0943300   4.2793190  99.4717313   0.0609095   4.9790299
  20.6367612  59.2092323  75.2495909  20.9523845  58.3260250  75.0583839
  19.8144400  59.2798948  74.7648001  96.9844294  39.0638621  26.6677582
  97.7926780  39.5040233  26.9308674  96.7064763  39.5260913  25.8769905
  30.4793472  84.0002663   3.8094341  30.9930278  83.2787569   4.1724693
  30.0332857  84.3810613   4.5659172  12.8041792  54.6400261  44.4946623
  13.2640135  54.8282337  43.6765146  12.5737977  55.5011177  44.8434830
  60.1437759   8.6208588  51.3919210  59.4619131   7.9625857  51.2578678
  60.4832172   8.7962580  50.5142879 106.5123664  54.2819118  87.6414013
 107.3340438  54.7562361  87.7682495 106.5371947  54.0001154  86.7269516
  45.4393291  62.9111338  87.1951675  45.3560066  61.9576168  87.2049427
  46.1286831  63.0847597  86.5541744  89.4144202  91.7562659   0.1099407
  90.1993800  92.0439012   0.5761254  88.7021495  92.2556336   0.5093586
   7.3059928  62.4522638  61.1546040   7.0928186  63.0516863  60.4394245
   8.1409168  62.7732515  61.4953375  33.3066320  69.2565775  88.7087250
  33.1859612  68.3160591  88.5779667  34.2561173  69.3777084  88.7145615
  30.5359939  22.6089174  22.4828446  30.4057077  23.4880478  22.8383553
  31.4753536  22.4499351  22.5753605  67.9027916  87.7384717  13.5526287
  68.5448695  88.1846125  14.1048348  67.8481222  86.8543417  13.9153397
  17.1640062  20.2466893  53.9902306  16.5927339  19.8835039  54.6669722
  16.8723130  21.1530113  53.8916206  46.4882834  73.0098982   3.1774056
  45.6722421  73.4444172   3.4253990  46.2122978  72.1604784   2.8330910
  28.8629389  29.8867130  82.7594185  28.6908984  30.1407385  81.8527222
  28.6861420  28.9462614  82.7823353 100.2284981   1.7395002  11.6933262
 100.2266289   2.2796614  10.9031021 101.0034205   1.1849815  11.6025746
  68.0903673   1.9268003  74.8827076  69.0266848   2.0198888  75.0584078
  67.7933931   2.8159893  74.6893692 110.9000350  82.8757389  16.5763580
 111.7718936  83.1465871  16.2887203 110.7476426  82.0438178  16.1281216
  25.4679275  19.9057770  74.8103237  25.9046316  19.1790950  74.3659639
  24.8256803  20.2234197  74.1756153  14.6391761  21.4864755  48.9704275
  14.4554353  21.1478448  48.0941820  15.0412083  22.3415542  48.8173151
  99.2895366   7.0466024   3.0992710  99.8483350   6.7731935   2.3717987
  99.6353103   6.5751821   3.8571942  73.9096619  55.4477974  27.7693760
  73.7869764  54.7600941  27.1149742  74.1604472  56.2195395  27.2616875
  26.1280012  50.6060028  80.8136082  26.1734247  50.9766817  79.9322653
  25.3644538  51.0250521  81.2106323  31.6630960  33.0627561  81.4416504
  30.8103895  33.3377528  81.1047554  31.6663384  33.3555746  82.3529625
  33.0000257  32.5918484  76.6148281  33.9320207  32.4498630  76.4491272
  32.8984928  32.4429703  77.5549126   3.9522672  26.9378543  71.6372776
   4.8723745  27.1182585  71.8298578   3.5841063  26.6521955  72.4733925
  51.0186566  91.9504602   3.7618935  51.4395464  92.8028901   3.6503231
  51.3624240  91.6204317   4.5920384  16.9546986  46.6874075  76.9631767
  16.1210060  46.9431067  77.3579025  16.9062996  47.0178175  76.0661125
  78.8053990  96.0026486  26.7668640  79.0557099  95.1511128  27.1252930
  79.3167210  96.6348059  27.2719967  43.3036900  29.1656566  78.9114761
  43.4083939  29.6698117  78.1045723  43.9583540  29.5292044  79.5076990
  78.5081436  30.9219629   8.4629166  79.4579531  30.8142263   8.5127651
  78.3703829  31.8667681   8.5306561  52.9676617  66.8094404   7.2651589
  52.5942970  66.8663068   6.3856136  53.1644035  67.7160509   7.5009167
  28.8206577  48.4661198  68.9868879  29.2467976  49.2919922  69.2161846
  28.3851385  48.1894016  69.7931004  82.8402377  74.2662151   4.0050518
  83.0142833  75.1252921   3.6204350  83.3289576  74.2688115   4.8280823
  48.6433887  49.6668434  90.3613853  47.7016020  49.6243334  90.1956749
  49.0423107  49.3027306  89.5711231  32.5688386  32.5280619  66.9951344
  32.7181172  33.3060384  66.4578247  32.5841236  31.8007684  66.3730049
  53.0811596  54.6524715  75.4217577  53.7212324  55.2514458  75.8061647
  53.5871315  54.1265106  74.8024130   5.9655976  65.5918598  91.5131283
   5.2585256  66.1725664  91.2319565   6.6385436  65.6903172  90.8395672
  34.7728539  45.1140976  75.7753372  35.3567719  45.8061600  76.0856962
  35.2749729  44.6637535  75.0961447  40.7776356  27.5510573  79.4484520
  40.6137657  28.0878735  80.2238274  40.0608349  26.9167328  79.4404507
  25.6984305  28.0249476  56.2811470  24.8656654  27.6164103  56.0448647
  25.8113551  27.8192186  57.2091341  73.4394194  87.4803646   5.7676804
  73.5212565  88.0054052   4.9715244  72.7590371  86.8390234   5.5627644
  19.1732574  40.4634380  72.9709196  18.3313632  40.6771183  72.5686932
  19.2983305  39.5328856  72.7847576  11.3026011  39.8898482  74.8544264
  10.9683263  40.4095411  74.1233921  11.0806692  40.4008532  75.6327915
  50.4625750  41.9034386  79.4307756  49.9094105  41.2927389  78.9436579
  50.8796453  42.4392271  78.7560844  60.1472759  34.6866679  78.5962629
  59.3289089  35.0165701  78.9672947  60.7085133  35.4591775  78.5293818
  47.4375916  39.5696497  75.7056522  46.7791319  39.1454291  75.1554728
  47.5056171  40.4580688  75.3559208  35.8862075  39.7499616  14.1425907
  34.9842630  39.8356242  14.4514382  36.3488477  39.3301101  14.8677933
  53.6394930  42.6609468  81.1895180  54.1973639  43.2044363  80.6330681
  54.0263844  41.7870665  81.1358833  49.2220640  40.4767799  88.8621807
  49.8803234  40.0448704  89.4065952  49.3929100  40.1531172  87.9777145
  24.3778515  56.1855125  91.5518284  24.9563861  56.4478111  92.2678852
  24.7429872  56.6161680  90.7788849   3.2794470  56.2997532  63.6898518
   3.1226870  55.3591776  63.6063051   2.6004621  56.7046022  63.1501198
 111.1456384  13.9972699  64.3405962 110.7306574  13.5073471  65.0505209
 110.4178025  14.2778063  63.7858105  59.4291808   5.7982809  12.7582752
  58.6086716   5.8557541  12.2686875  59.2346622   5.2036983  13.4827530
  70.9947586   1.7288987  62.2497797  71.6615486   1.0456752  62.1802902
  70.8703947   1.8473095  63.1914520  99.1181088  79.1794593   9.4187748
  98.9547253  79.5080979   8.5347283  98.9794780  79.9381120   9.9857437
  87.7823735  72.1457357  -0.0545109  86.9977713  72.5614984  -0.4119671
  87.6591922  72.1775098   0.8942043  23.1713009  25.3059125  84.0221119
  22.7831292  24.4942689  83.6953259  23.3330870  25.8275104  83.2359886
  83.6981592 100.7920701  92.6328278  83.1642017 101.4954633  92.2635555
  83.5170261 100.0357068  92.0748520  85.4207538  65.6186485  82.2431183
  86.3118361  65.3322029  82.0427418  84.9415730  64.8080683  82.4150944
  41.3334370  33.3120847  63.9846039  42.2724819  33.2757902  64.1665506
  41.2720585  33.7267017  63.1240463  40.8254779  52.2632685   0.7735836
  40.3330720  51.6017271   0.2876484  40.1589356  52.8718792   1.0922444
  21.1052847  42.6383257  65.7226944  21.0425305  43.3788586  66.3259411
  21.6301560  41.9903612  66.1926794  97.0151951  11.4994652  19.2956268
  96.8781783  10.5541880  19.3581974  96.5733625  11.8570215  20.0657952
  25.0410843  18.9108658  91.7013359  25.2414489  18.1756067  91.1221313
  24.3250799  19.3718719  91.2642574  22.2374582  37.4529099  25.6470299
  22.5751352  38.2361698  25.2126217  22.1641493  36.8037844  24.9473929
  54.1459859  87.1294673   1.5641415  54.1719235  87.5646622   0.7119858
  54.1845084  87.8443916   2.1994602  37.4206424  20.5300713  80.4419231
  36.6959262  20.8350372  79.8960161  37.9057264  21.3253164  80.6621647
  77.0129435   8.3890421   8.4183323  77.0530082   9.3266804   8.2300198
  77.7372888   8.0131180   7.9180920  23.9837384  43.6708164  57.1991062
  24.4375372  43.1664228  57.8742981  24.2132378  43.2339191  56.3789320
  63.8050557  94.8394711  18.3227265  64.4537807  95.0249512  19.0016853
  64.1135240  95.3250392  17.5576794  99.9477317  23.6250050   8.9184582
  99.3788745  24.2499000   9.3680489  99.7410418  22.7810556   9.3200218
  14.5303571  76.7044401  87.6919270  14.3044257  77.1614885  88.5020447
  13.7123871  76.6784811  87.1954536  69.8230434 105.4370577   7.5713265
  68.8925744 105.6581576   7.6109707  69.8934556 104.6107609   8.0493652
  13.9507711  57.6650810  49.3977451  14.6779752  57.2770166  49.8843765
  13.6506486  56.9656086  48.8173199  60.9646989  89.1751368   7.1753323
  60.1524950  89.6763904   7.1025097  60.7595349  88.3278925   6.7799580
  11.6696942  21.9864798  56.6136789  12.5720990  21.7022777  56.4683294
  11.6442275  22.2405028  57.5362062 101.5994249  28.7829685  83.6453819
 102.5494169  28.6659837  83.6532211 101.4508913  29.4947910  83.0228996
   9.4929487  61.8633747  70.5576801   9.4764489  62.1802092  71.4607668
  10.1169729  61.1376476  70.5698299  76.8355328  12.8195221   0.1941693
  76.9837964  13.2108004  -0.6667316  77.5625984  13.1367523   0.7298672
  98.6210133  13.9187891   4.7451317  98.7592341  13.4170515   3.9417755
  98.3869411  13.2616932   5.4006207  95.6550027  81.3097341   9.9665558
  95.8795834  80.4187305   9.6984017  94.7322608  81.4054377   9.7307217
  18.1043792  23.4917927  43.2665014  17.8139412  24.0733838  43.9690876
  19.0043330  23.7639499  43.0869293 106.7286782  16.5693784  70.3428268
 106.7316948  16.9681525  69.4726562 105.8049689  16.5469313  70.5928040
 104.7824933   1.3846189  12.1687042 104.8059537   2.2674782  11.7996037
 103.8935234   1.0755903  11.9941628  48.1107950  57.2308159  85.5630398
  47.3026085  56.9128895  85.1605606  48.7789774  56.6038132  85.2862167
  16.7343047   6.9289095   8.7134659  16.2115720   6.6617233   7.9574215
  16.4336112   6.3630897   9.4245636  12.4143088  31.8380380  90.1464748
  13.0531979  31.2139559  90.4908180  12.8092396  32.6958680  90.3026485
  32.5309348  36.9476223  81.4980888  32.0857644  37.6258063  80.9900379
  32.9826117  36.4154077  80.8431339  36.9731212  52.8728724  71.3996649
  36.8649077  53.6920500  71.8828583  36.4802361  53.0055285  70.5899143
  26.3337732  97.1371825  13.9466965  26.7145229  97.8087885  13.3808338
  26.3426948  96.3419468  13.4140217  35.8234167  15.2576280  42.3244047
  35.7555604  14.4155550  41.8743610  36.6327000  15.6437147  41.9893980
  50.6492853  53.8393688  90.9712601  51.1411238  54.5657635  91.3542557
  50.2007198  54.2244148  90.2184200   1.5922458  24.0103745  88.2272148
   2.0028624  24.8739290  88.2708073   0.8461084  24.1293430  87.6395416
  45.3689003  50.1022291  79.6169329  44.6958637  50.5069256  79.0696907
  44.8896790  49.7578812  80.3705978  81.8613052  48.3359194  82.2629833
  82.5989532  48.7306118  82.7280807  81.5109444  47.6886749  82.8749943
  84.0125932  11.3652737  14.6838009  84.9259897  11.1183245  14.5390522
  83.9788039  12.2966368  14.4654953  64.5625498  14.9925978   4.6340382
  64.8577978  14.8201162   5.5280792  65.3559925  15.2519352   4.1656124
  55.6376266  52.5105429  62.3969078  55.1183701  51.9947290  63.0137873
  55.5576658  52.0419168  61.5661097  88.7737157  16.8093664   5.0750076
  87.8289689  16.8799335   5.2117645  88.8789310  16.8129904   4.1236126
  69.5680524  77.4427040  33.6729347  69.0463186  77.9261048  34.3135178
  69.3061210  76.5296085  33.7907517  31.5016747  58.8348055  48.7834883
  31.5481186  59.1494656  47.8806782  32.3209238  58.3570242  48.9130497
  10.5598938  50.5042076  77.6984596   9.6231526  50.6909466  77.7607107
  10.6408179  49.5908546  77.9731846  22.8211988 103.1621201  12.7693188
  23.2155717 103.4562619  11.9482338  23.1348205 103.7870390  13.4230339
  55.8568144  73.1365824  85.9234810  54.9608850  72.8035498  85.8721924
  56.0080576  73.5490942  85.0730801  53.0100250  76.9925880  90.2667046
  52.0693254  76.8156338  90.2647781  53.3979034  76.2216949  90.6808376
  19.4696668  21.5050919  30.2850163  19.8579315  21.2411100  29.4508755
  19.9597314  21.0129673  30.9437191  37.7565622  63.0758667  86.2899494
  38.1062579  62.2204971  86.5395355  38.4560871  63.4801006  85.7766342
  74.5911777  26.3116152   1.9533455  75.1654156  26.3770468   1.1903202
  74.9046019  26.9929678   2.5481140 102.1643496  89.8642213  27.1708405
 102.2529984  88.9274724  27.3465454 102.4089146  89.9594457  26.2503254
  51.7497969  27.3169827  65.1915503  50.8730030  27.6849174  65.3014946
  51.9828653  26.9896817  66.0603380  57.7655602  31.6228509  68.8510561
  57.5601387  31.4016557  69.7594070  57.0033073  32.1150136  68.5461330
  28.9363647  50.0795221  91.9180870  28.7507319  50.9792471  91.6492748
  28.1268334  49.7816563  92.3330212  20.7726932  64.2242670  76.9875526
  21.3019681  64.6727276  76.3280201  20.7090163  63.3230734  76.6712809
  37.5431776  23.9522052  63.7203026  37.5784755  24.8175907  63.3127594
  37.4165630  24.1312432  64.6520472  37.4463224  46.2125969  48.5157013
  36.9177055  45.6078672  47.9950333  36.9640136  46.3059902  49.3372202
  25.7790565  23.2343054  85.8618641  26.2619305  22.9801035  85.0754452
  26.2222052  24.0248275  86.1699581  11.3150334  44.9276733  52.1196842
  10.8374858  44.1085052  52.2506237  11.7003703  45.1195621  52.9746246
  28.1366491  40.3657961  59.9247313  27.3066354  40.1863956  59.4829988
  28.7764764  39.8257565  59.4608212  99.9846278  11.7683268  67.8538799
  99.6565436  12.5166249  67.3552370 100.7931314  12.0849109  68.2567787
  50.8662033  49.0396214  63.6619425  50.9695292  49.0516186  62.7104092
  51.5781307  48.4805679  63.9731359   9.0106612  45.1460409  88.1026745
   8.5527349  44.9024868  88.9071751   9.7248620  44.5126200  88.0324745
 103.6646824  49.2264414  87.4110317 102.9069470  49.4037056  86.8536758
 103.4613405  48.3918715  87.8333855  57.7227295  82.4834235  10.3973496
  58.3444572  83.2110341  10.3809559  57.9902864  81.9233019   9.6687138
  61.3036013  34.0195203  72.5579548  60.3609562  33.9080310  72.6813602
  61.5312433  33.3918929  71.8720293  35.0471973  56.0298491  60.9273481
  35.9248137  56.1841822  60.5777693  35.1191163  56.2428665  61.8577671
  67.1174980  97.8641017  22.1213734  66.9218303  98.6975796  22.5494587
  67.1959544  97.2378380  22.8410065  33.9538074  45.9944868  80.4612446
  33.6801648  45.6148386  79.6262503  34.4429231  46.7805481  80.2181244
  63.9314508  84.1662407  66.6259813  63.6411285  84.8976040  66.0809565
  64.6318197  84.5329475  67.1656466  31.9266701  46.9343328  71.3158607
  32.7191019  47.2147703  71.7737246  31.8968630  47.4819279  70.5313301
 104.0587060  78.3818722  55.4962254 104.1811727  77.6958847  54.8399830
 104.4762509  79.1546106  55.1157427  10.4017258  10.5823553  65.5268526
  10.1494265  10.4053020  64.6206379  10.1911986  11.5068865  65.6578207
  19.4955361  75.3789520  23.2605457  20.4264474  75.1577759  23.2873535
  19.1641617  74.9267292  22.4847126  56.5828896  81.2021637  54.1942501
  56.3587618  81.8966770  53.5748529  56.1840868  80.4141617  53.8251257
  69.8943855   7.0028145   8.1142914  69.8248048   7.9372484   7.9187882
  69.8472758   6.5750772   7.2592747  94.0192868  22.7644569   2.0717728
  94.4027759  23.0868418   2.8873932  93.1371023  22.4846346   2.3160755
  43.3346510  50.7731771  85.3691769  42.9984903  51.5876102  84.9951077
  42.5550508  50.2378607  85.5171394   7.3545784  47.9973507  63.0313540
   7.4722570  47.1899223  63.5317993   7.3579454  47.7149248  62.1167755
  32.3526049  61.4583588  85.1986694  33.2419825  61.7821693  85.3414536
  32.2108769  60.8281422  85.9050560 105.0673820   0.1373846  27.1479237
 105.0751402  -0.2401989  28.0274689 104.2251064   0.5882055  27.0882332
  18.9778590  37.0171189  44.4605541  18.2470691  37.6106596  44.6334267
  18.9660835  36.8927741  43.5115337  69.3004418 102.0827563  38.6919605
  69.9613596 101.5397770  39.1216004  69.8025966 102.7712424  38.2559979
  96.5246083   6.6382629   2.7515232  96.1156942   7.4110491   2.3618805
  97.4534799   6.8621284   2.8090965  19.4753563   7.4832231  61.1070299
  19.9758661   6.8991292  61.6767311  19.9246347   8.3257961  61.1737585
 101.3982843  75.0410175  71.0507917 101.5854095  75.3252602  70.1561308
 101.7687474  74.1600609  71.1046410  33.2875633  45.6014061  88.9730644
  32.7335596  44.8216200  89.0083981  32.8847337  46.2096834  89.5927143
  16.6505206  26.0583973  79.1603518  16.8767464  25.7969952  78.2677555
  17.2441292  26.7835593  79.3552780  17.6091075  20.4140067  57.0877314
  18.1865513  20.2947736  56.3336945  17.1151304  21.2091327  56.8877602
  46.8546534  38.0458045  85.3078175  47.3508835  38.8395905  85.5075455
  47.5190067  37.3609900  85.2310371  27.1273518  40.9385872  71.8735266
  26.8737388  41.6876078  71.3341999  26.9643188  41.2245035  72.7723598
   7.0887405  25.1484418  89.8880959   6.8906969  24.3777514  90.4201126
   7.1742737  25.8610964  90.5213737  19.8920572  31.7652369  61.4581108
  19.9736571  31.2558198  60.6518459  20.7919455  31.9986057  61.6860867
  35.7936192  50.3797865  89.7990990  35.5656552  50.5739355  88.8899422
  36.7125916  50.6364250  89.8756504  69.3760897  82.5007899  12.5394356
  70.0411702  81.8872364  12.2272598  69.2054344  82.2304137  13.4416592
   8.2132554  49.5893955  74.4569635   8.6130589  50.4570580  74.5165682
   7.3176754  49.7579527  74.1641235  19.2669177  54.6620798  90.7660961
  20.0985622  54.8994684  90.3559208  19.5080137  54.3715143  91.6456890
  30.7386068   9.5300514   0.3656017  31.5904716   9.1761667   0.6211865
  30.6093696   9.2195589  -0.5305755  58.5838604  23.4905815  76.8509865
  59.4844532  23.5230184  77.1736479  58.5798454  24.0749931  76.0929108
  87.2362948 106.7445500  11.3828957  86.5452386 106.2085993  10.9937489
  86.7738248 107.3415883  11.9710266  42.7071142  46.2511873  72.3838568
  42.7140379  47.0487499  72.9130793  41.8203402  46.2089062  72.0259714
  62.6905680  41.3628578  88.3381939  63.0482340  42.2505903  88.3536530
  62.5506401  41.1449385  89.2597008  27.0322707   0.9737188  29.9165356
  26.5418533   1.4811356  30.5632603  26.4132694   0.8379681  29.1991532
  53.0495310  75.3892612  74.0497541  53.0648088  76.2668133  74.4317245
  53.5828352  75.4632092  73.2583332  53.5085679  99.1372998  22.8598320
  53.8757730  99.5094521  23.6616432  53.5977364  99.8341067  22.2096550
  11.1560872  26.5884048  38.1747925  10.2247289  26.6265184  38.3924019
  11.2765220  27.2730715  37.5167954   6.2943033  15.9289534   8.4567368
   6.2693361  16.1073906   9.3968212   5.6430105  15.2397043   8.3263886
  94.0234853 104.3365176  16.3348972  93.6725951 104.7319396  17.1328652
  93.7857819 104.9495728  15.6392777  36.4548469  66.1788988  74.1375780
  37.2089529  66.7678547  74.1114330  36.2048268  66.1507511  75.0611162
  55.7251930  67.0270824  65.0811005  55.0123215  66.4256144  64.8659706
  55.5628490  67.7960873  64.5347452  27.9501918  15.8955938   8.8006317
  27.9679349  16.8393118   8.6415302  27.4286607  15.7967503   9.5971691
  18.3527902  17.0357449   9.3564999  18.2732871  17.7636177   9.9730313
  19.0760902  16.5101988   9.6983826  33.5975671  55.6376839  68.2435226
  32.6628518  55.7569170  68.0752325  33.9675021  55.4107761  67.3903561
  36.1723042  35.8715296  87.2737217  36.9148707  35.7654428  86.6791058
  35.4182577  35.5598378  86.7732239  50.1600695  31.0248017  76.9089317
  50.8672094  30.4169464  77.1250153  50.2298355  31.7168808  77.5664997
 113.0532600  15.6940967   6.1662876 113.3202411  15.7770092   7.0817482
 112.1212675  15.9123165   6.1678898  14.6166730  64.2870188  79.1776800
  14.2455304  65.0326395  79.6494150  15.4716885  64.1475725  79.5847893
   2.3919365  42.9530811  91.2405014   2.8301758  43.7481260  90.9370518
   3.1056845  42.3696184  91.4981079  46.4161158  24.8283291  62.1560812
  47.0552492  24.6305919  61.4715099  46.9095087  24.7543740  62.9729843
 101.8491698 101.1593468   8.2179463 102.0982123 102.0808537   8.1469452
 101.6272164 100.9016068   7.3232186  26.7449093  60.9660578  60.0672913
  26.9484329  61.2318134  59.1705275  25.9998775  60.3717995  59.9777460
  43.3165026  31.5536904  60.7733774  43.0926752  31.6478372  61.6992664
  43.6701918  32.4076009  60.5244398  26.0071707  57.8622723  67.3552895
  26.3642168  58.7492704  67.3999119  26.1638188  57.5861788  66.4522600
  44.7080755  51.8357897  76.0204601  45.3722620  52.2452641  76.5749168
  43.9539099  52.4225235  76.0770750  32.8340530  41.4115763  73.6658525
  31.9349670  41.1445570  73.4745932  32.8010035  41.7371321  74.5653820
   0.8983186  10.6261236  35.0002587   0.7951358  11.5702755  35.1192677
   0.8443883  10.4967625  34.0533745  28.6329532  30.0481629  79.8856020
  29.4351912  29.6018219  79.6146202  28.5206175  30.7494783  79.2439079
  96.0828830   4.1232998  18.9730751  96.7807771   3.8274986  18.3885395
  96.3873889   3.8859445  19.8489582  43.6478662  32.4603367  78.9926004
  44.1173267  31.7481065  79.4268465  42.8348207  32.5494790  79.4898367
  48.3290958  54.8492718  78.0181503  49.2125416  54.6670580  77.6979113
  48.4419250  55.5743790  78.6327410  17.6808837   4.5125849   4.9894726
  17.3383525   4.0592510   4.2191517  18.4206012   5.0219423   4.6584141
  75.9711313  52.9033422  84.7182560  76.4774799  52.2240305  85.1636600
  75.1348066  52.9224777  85.1834774  64.9438810  69.8274279  72.9398918
  65.4088545  69.5631313  73.7337303  65.4015636  70.6147528  72.6451445
  63.4027863  98.4971077   2.3472225  63.0413557  97.7711613   2.8557503
  63.7698866  99.0896733   3.0032169  46.9699621  11.9306862  39.2910385
  47.2778893  12.8300107  39.1786695  46.8436718  11.6075325  38.3989310
  32.4374175  25.3224349  91.5417671  31.8680954  25.7384133  92.1891212
  32.9106021  24.6520066  92.0345688  94.2040481  13.8070375   7.3403656
  93.3976092  14.0273029   6.8741333  94.0704431  14.1485435   8.2245361
  10.9078601  12.9694349  15.6084549  10.1738694  12.7774984  15.0248158
  10.5385879  12.8992063  16.4887631  32.2940421  70.1412344  54.7473192
  32.8854442  70.3646469  54.0285969  32.8666449  69.7855425  55.4269075
  61.3280296  85.3467464  76.4878654  60.6356478  84.7300529  76.2501287
  61.2036514  85.4968739  77.4250031  79.0617990  59.0068102  81.6721344
  78.2949543  58.4619570  81.4951611  79.8083019  58.4343386  81.4953804
  61.1452818  89.2176628  85.2026749  60.6257105  88.6657619  85.7872105
  60.8323050  90.1063824  85.3713799 100.7980347 106.5356064  86.2441540
 101.1169434 105.9371281  86.9196987  99.8893929 106.7107964  86.4889336
  79.0490246  70.8892059  49.9782181  79.5177507  71.7117548  50.1194477
  78.3507252  71.1139917  49.3633366   6.4818385   0.6729507  46.8524599
   7.1420863   1.2035942  46.4066696   6.9856837   0.0973987  47.4278784
   1.9537762   7.6256687   0.9328472   2.5462154   8.3448250   1.1520874
   2.0694116   7.4986917  -0.0088203   1.5744068  83.8884926  60.5081892
   0.6811382  84.1558170  60.7245970   1.5601970  82.9333973  60.5699348
  76.9654179  94.4874668  90.7342815  77.9040718  94.6562290  90.6525517
  76.5674019  95.3574657  90.7646275   1.2486460  98.6094553  15.1723492
   1.6776946  99.1288884  14.4923889   1.8182328  97.8489048  15.2879250
  82.9453851 103.4572203  10.2860176  82.3675347 103.5075266   9.5245850
  82.6097155 102.7179558  10.7930100  68.1693792  89.6239567  78.1399679
  67.3676443  90.1381207  78.2353258  67.9721165  88.7910175  78.5683632
  51.0661748  23.8337595  32.1194565  51.5814069  24.6396572  32.1555531
  50.1562265  24.1306669  32.1277344 106.3985659   5.1439125  21.0612023
 106.4026500   5.9222776  20.5040943 106.2650158   4.4157679  20.4544079
  21.1045841  29.1694338   0.5996716  21.2307885  29.9202425   0.0195133
  21.2547258  29.5179064   1.4784634  80.0027466  97.3687267  80.3664589
  79.6839094  98.1570148  79.9269485  80.3894615  96.8436432  79.6657658
  25.9893182  44.0526754   4.7366154  25.6979469  44.9243814   4.4692814
  25.1993469  43.6282808   5.0713741  96.9974995  71.1486912  76.8052864
  97.2000980  71.8920088  77.3733234  96.1642933  70.8139563  77.1368837
   9.6166232  50.9665853   2.6411545   9.2991164  50.9302313   3.5434258
   8.8388160  50.8059580   2.1068775   2.1357013  85.6844521  81.8749332
   1.7015506  84.8542213  81.6788197   2.6988365  85.8449745  81.1177444
  38.6385921  32.8100473   0.5892861  38.2479480  31.9810564   0.8656990
  37.8918508  33.3934671   0.4542553  64.3426037  71.5225029  69.7917080
  64.7084427  71.6108274  70.6718159  63.8810253  72.3472834  69.6403122
  80.9803104  86.3175392  80.6033039  80.8784580  85.3697205  80.6897926
  80.8216572  86.6568565  81.4841652  51.8332672  73.4417295  75.8060884
  52.1871471  74.1876268  75.3216934  50.9120274  73.6615086  75.9447956
  48.4926510  73.1491852  88.7385464  48.1891012  73.7193918  88.0321789
  47.7711725  72.5357962  88.8780022 104.9093343  17.7123625   6.2490952
 104.6603729  16.7962677   6.3716519 104.3513920  18.1957657   6.8583977
  98.3795452  59.7407818  91.7550468  99.2476368  59.7546053  92.1581078
  98.4758472  60.2663231  90.9608364  24.8460698  89.1854763  91.2656593
  24.0403533  88.6922073  91.1115932  25.4961061  88.5189915  91.4881134
   4.9240974  59.7179396  13.8537132   4.7286037  59.8903162  14.7747433
   5.8591035  59.5133669  13.8415444   4.9348452  57.9972942  26.8784058
   4.8002818  58.4954764  26.0722267   4.0510371  57.7947800  27.1851647
  59.8670197  69.7485685  73.8967085  60.3060532  70.5959320  73.8228798
  60.5800295  69.1102123  73.9153576  29.2177299   9.1593201   2.5423157
  29.8421481   9.1516859   1.8168652  28.7457040   9.9861366   2.4433529
  76.9453144  99.2510128  60.5364275  77.6697636  98.6423016  60.3919554
  77.2478437  99.8196316  61.2445164  98.1742812   2.5960349  91.3195229
  98.6099625   3.3785056  90.9816647  98.6849118   1.8668270  90.9677410
  43.0641556 105.2383709  64.7162437  43.9994335 105.3299522  64.5343018
  42.9240370 104.2936707  64.7805357   8.1253770  20.8774406  28.8091671
   7.6198343  20.1481993  28.4501755   8.9149240  20.4694588  29.1646874
  31.8306926  43.3242685   6.0673058  30.9650520  43.0830366   6.3970196
  32.0493224  44.1300184   6.5354931  12.8073743  25.2812941   2.5735294
  12.0123580  25.8038551   2.6789391  13.4440807  25.8875877   2.1950543
  54.8313141 103.9612961  55.9114742  54.6975136 104.8008537  56.3513327
  55.1616335 104.1953087  55.0440836   9.1695598  42.6242048   8.4323036
   9.3650249  43.2727987   7.7560246   9.7646192  41.8978006   8.2466328
  87.3008157  98.6681445  26.9105923  86.5809632  99.2294295  26.6224873
  87.9184056  99.2671187  27.3301613  49.3486261  59.6704578  91.3506794
  49.3491650  59.9330235  92.2711658  49.0527964  60.4494238  90.8795834
  53.9664412  65.4867077  81.0848808  54.2735767  66.1879206  80.5102539
  54.4861746  64.7240496  80.8309841  36.2581352  24.0862162   7.7588665
  36.6416028  24.2256243   6.8929875  36.6901973  23.2980759   8.0880940
  36.9238761  36.6535932  10.7143509  37.3030761  36.0103113  10.1154911
  36.6734508  37.3862726  10.1515782  46.6510820  76.7359257  89.1797066
  46.6193819  76.1365795  89.9253654  46.0898924  77.4676037  89.4364929
 101.7665841  30.7405264  12.5504696 101.4645769  30.6856138  11.6438210
 101.5329625  31.6264707  12.8274929  58.5361481  76.1061144  84.0410805
  59.0507793  76.1368608  83.2345772  57.9583645  75.3514051  83.9278889
  89.1407336  35.4845316   8.8842880  89.1092290  36.2707693   8.3392441
  88.7959780  34.7900278   8.3230030  60.3569746  66.0283709  90.0342369
  60.7197046  65.4501724  89.3631649  60.2192068  65.4594421  90.7915878
   8.2531645   1.6776466  53.9855289   8.1992438   1.3465690  53.0890274
   9.0027907   2.2728061  53.9763737  54.8845005  75.6357145  71.8943977
  55.1536417  76.5517187  71.8256378  55.1932240  75.2337646  71.0823870
 105.5730773 101.7934592  13.6972344 106.1062957 102.0028098  14.4641030
 104.7448302 102.2483332  13.8499939  54.0622285  61.1098272   7.0917618
  54.9254182  60.9054071   7.4514019  53.8272336  61.9461710   7.4936878
  45.1862195  33.2759840  25.2149594  44.4890073  32.6212580  25.1766979
  45.1177553  33.7475569  24.3848049  78.9296961  59.9550009  84.3652248
  78.2010555  59.6987057  84.9305820  78.8846207  59.3480349  83.6264515
  45.5549855 101.7044575   5.7223046  45.4341150 101.2701590   4.8779022
  44.6679295 101.8117793   6.0655892  51.8857861  56.1512089  87.7245235
  51.4990330  56.8664789  88.2295418  51.2928724  55.4125595  87.8626633
  12.1388915  51.5247423  26.3004982  11.8565563  52.2036154  26.9134056
  11.3249687  51.1234743  25.9959614   8.5909990   4.6331436  23.5631191
   8.0918363   5.3590090  23.9375317   8.0724672   4.3489916  22.8103840
  25.8789686  31.9795401  32.1228325  25.2431253  32.6364023  32.4065029
  25.5013231  31.6095430  31.3248837  66.3634729  46.6200542  90.1109886
  67.1695995  46.8998146  89.6772480  65.6731176  46.8007278  89.4730186
  43.3420706  43.5529566  82.6495934  42.5907230  42.9612112  82.6102543
  43.9746141  43.1001520  83.2073402  51.0453606  72.6480770  64.7240210
  51.5972614  72.3899603  65.4622698  50.3505754  71.9900084  64.7028017
  20.0502419  78.2660007  38.3044076  20.7925749  78.8211346  38.5431552
  19.6044362  78.0925798  39.1335130  60.6978416  70.3302479  79.9612665
  60.4240370  70.2789068  79.0455008  60.3249931  69.5475531  80.3669739
  77.9860210  62.4924231  72.0000935  78.6778641  61.9600296  72.3927021
  77.5870991  61.9208527  71.3440418  26.5940097  39.8503763  12.1600544
  26.8284372  39.5196611  11.2929260  26.0764793  39.1473467  12.5526631
  55.0866032  66.6149855  67.9174423  55.4343987  66.7294550  67.0330381
  55.2268553  65.6882954  68.1118822  59.6576500  87.3534203  87.1435165
  58.8722515  87.3901749  87.6894379  59.6223879  86.4904213  86.7309380
  31.1976531  37.3629457  24.2551624  30.9249786  37.1996576  23.3522617
  31.4269069  36.4984304  24.5961773  63.4072831  60.8287699  10.9526169
  62.6048044  60.7073385  11.4600956  63.7002519  61.7123396  11.1755573
  57.4071789  64.3384981  80.3729630  57.4707031  63.4770346  79.9605560
  56.7312574  64.7947311  79.8717451 106.1453677  17.9000377  74.8781013
 105.6747485  18.7074851  75.0849390 107.0226098  18.1911563  74.6292448
  24.3383935  38.5680181   4.1418278  24.9940065  39.2579920   4.2435276
  23.5766938  39.0140898   3.7715923  99.9321175  75.6433296  80.0324345
 100.3079414  76.2066936  79.3559694  99.2737961  75.1228094  79.5721102
  15.2127317  42.2577841  15.7566464  15.1519016  42.5478441  14.8464787
  14.3032792  42.1858866  16.0464012  17.2750905  34.8771555   7.8460896
  18.0819801  35.3035528   7.5573933  16.6385511  35.5889589   7.9124272
  51.3889077  39.7551805  -0.1026810  51.1303094  39.8483164   0.8142101
  52.2289136  40.2102549  -0.1620376  42.3872045  32.6064569   3.5079205
  43.0221132  31.8916971   3.5552704  42.1010783  32.6125509   2.5945103
  74.1605259   1.1548423  52.3179436  74.6791650   1.2362480  51.5175581
  73.2844449   0.9191512  52.0127201  57.8528404 101.4011383  67.1318817
  56.9556952 101.4314651  67.4642038  58.4003067 101.4962196  67.9112864
 100.2090979  99.2096121  17.0167458  99.7087384  98.4137948  16.8363487
 100.6512404  99.4068892  16.1910259  10.0212720  24.7126610   3.8877403
  10.3682187  25.5801470   4.0958988  10.1641753  24.2002756   4.6835339
  44.3979263  36.9313931  81.2532425  43.7753105  36.2086725  81.3323116
  44.4170427  37.1297240  80.3170109  42.3373270  98.0635643  68.3135223
  42.9438400  98.1213570  67.5752544  41.9872856  97.1738815  68.2668400
  99.6185398  85.7783413  70.0269890  98.7531662  85.4136467  70.2123594
  99.9320889  86.0937786  70.8745813  78.5669947  83.8891411  65.6760120
  78.8083696  83.8455391  64.7507715  79.3909693  84.0644836  66.1304903
  18.0561307  45.6554014  16.1109078  18.3799079  46.5548784  16.0625088
  17.3425916  45.6916410  16.7479145  72.2932196  87.8407955  67.6803112
  72.2591782  88.7291241  68.0351877  72.3204613  87.9628658  66.7313147
 108.3562946  36.0074234  88.9821053 108.9466381  35.5273509  88.4013653
 107.8139305  36.5312862  88.3924961  37.1321061  77.3689157   9.8380291
  36.4228204  78.0106241   9.8011982  36.6909602  76.5210421   9.7857964
  16.7730573  53.0875666   4.2925083  16.4451650  53.9436228   4.0170204
  16.1931852  52.8280622   5.0084984  65.8914518  71.2820578  81.9353199
  65.4137993  71.9493294  81.4425468  66.4377117  70.8463717  81.2810993
  47.5976276 100.1868725  89.8928642  47.0603275 100.8807373  90.2750874
  48.4922934 100.5240917  89.9385452 105.3127384  77.9653692  40.3931713
 105.9611988  78.6329412  40.1694059 105.6062222  77.6193714  41.2360096
   3.7402108  20.3034717  12.5153839   4.2423728  21.0451013  12.8530991
   3.3169130  20.6405146  11.7257893  82.3315334  91.7646503  40.3648186
  82.2313309  92.1916389  41.2156248  82.1275043  90.8446980  40.5330181
  90.1400471  80.4453468  48.9760447  90.8572102  80.6067562  49.5891142
  89.8978996  79.5314980  49.1259480  16.5163854  37.4395925  10.3450405
  16.4076904  37.2842771   9.4067967  15.7187560  37.0875151  10.7400810
  99.4193936  10.3192996  77.0453119  98.8094092  10.9807300  77.3718977
  99.9834348  10.1234531  77.7934599  31.3426208  93.8090706  89.5513153
  30.4125023  93.5967064  89.6288681  31.7513442  92.9930782  89.2626286
  54.7255564  96.7332649  78.1854534  54.1329288  96.0965347  77.7859592
  54.5890522  97.5360489  77.6823187  53.0494261  82.6409245  65.5177307
  53.5857296  82.4982929  66.2976503  52.9563951  83.5919380  65.4616690
  97.5507403  21.3021659  88.3341599  97.6021815  22.1724414  88.7293816
  96.7177392  20.9470748  88.6443996  54.4841337  95.3161907  89.1031361
  55.2211809  94.7154999  89.2134571  54.0988064  95.0705910  88.2620525
  36.2211803  60.4982836  44.3168842  35.4786065  60.3032095  44.8885166
  36.3370994  59.7040445  43.7953674  60.9374046  71.4530134  87.1004295
  60.8955669  71.1192560  87.9965878  60.1480913  71.1112070  86.6804504
  65.8282614  70.8357096  84.5011997  64.9485826  70.6810093  84.8453808
  65.6958771  70.9891510  83.5657024 104.6684838   1.4656257  76.1458826
 103.7215520   1.5668392  76.0494041 104.8074056   1.4008998  77.0907307
  74.5183134  85.6178761  66.4054680  74.7354984  84.7027302  66.2278032
  73.6865711  85.7588100  65.9531641  65.1355362  81.3009548  92.1166325
  65.4448032  81.6856956  91.2965393  65.2831841  80.3611279  92.0109653
  11.3953544  83.6250210  61.9290829  10.6052162  83.2835102  62.3477554
  11.2154914  83.5624409  60.9910154  39.4545987  34.1560728   7.7119839
  40.2377322  33.8581831   7.2491753  39.0240053  34.7495825   7.0967114
  23.3809284  28.4142858  24.2934620  24.2905429  28.3091242  24.0145790
  23.2181361  27.6653940  24.8669541   0.8526518 105.4994710   3.5552036
   0.4811099 104.8718913   4.1751492   0.7812884 105.0666268   2.7044499
  77.2226858  88.8375568  90.0318909  77.7528095  89.5959187  89.7867489
  76.3254929  89.1702557  90.0561523  29.2575744  22.8879148   3.8266670
  30.0123838  23.2440502   4.2953503  29.5728830  22.0636208   3.4560597
  31.4276698   4.6403789  52.4225187  32.1674349   4.1866111  52.0186996
  30.6631949   4.1209793  52.1734381  16.0445979  58.8067705   0.8529865
  16.2261489  59.1356642  -0.0274074  16.7837623  58.2317335   1.0510075
  58.6674070  75.4308462  71.9717073  58.5919380  76.2177992  71.4320469
  59.5915556  75.1883316  71.9136524  71.3597202  62.5095415  83.9607143
  71.8225622  63.3193398  84.1757298  70.4385853  62.7082920  84.1287327
  42.7404931  18.0825693  28.8922131  41.8926147  18.5194666  28.9725601
  43.3343366  18.6124832  29.4239819  12.8175786  36.7805082  19.5313370
  12.0064405  37.2693045  19.3921959  12.5378660  35.9665472  19.9502289
  70.4481268  77.6172543  49.2609596  70.4893970  77.1497965  48.4266853
  69.9964046  77.0142078  49.8513126  54.5183420  87.2409534  65.5898142
  54.4149160  88.1925488  65.5900097  54.0686321  86.9509888  66.3834810
  73.8451246  34.1799337   9.7974503  73.9812711  33.2914335   9.4684326
  73.6132768  34.6898729   9.0212834  53.6987832  14.6209986   4.1385662
  53.9523938  14.8793537   3.2524693  53.3779100  15.4281408   4.5407974
  77.9654694  78.0768919  82.2531796  78.9076185  78.2385588  82.2037125
  77.5695324  78.8342953  81.8221378  34.4501925  83.0089474  73.5440207
  33.6512637  82.6088142  73.2007408  34.4732571  83.8785267  73.1446171
  11.9427826  92.3182011  64.8220921  12.7236415  92.7713585  64.5040703
  11.8884422  92.5555706  65.7477999  14.2435125  18.4179480  50.5118382
  14.4952348  19.0923864  49.8809635  15.0165561  18.3072597  51.0653603
  10.4392389  19.8741371  17.7365505   9.6193651  19.4198543  17.5424587
  10.7214263  20.2295858  16.8937885  19.9214462  21.0488302   0.7592594
  20.5281547  20.3664905   0.4719460  20.3309015  21.8671686   0.4783737
  83.1531143  64.0767717  51.9808960  83.1773663  64.3654108  51.0685730
  82.8813553  64.8530531  52.4705601  46.4504385  96.6184330  65.2236080
  45.7506704  96.4603901  64.5899057  46.0121584  96.5984821  66.0743380
  52.8638029  87.5281048  84.9975681  52.6360321  87.2880459  85.8957481
  52.0309114  87.5097847  84.5262146  53.0994558  82.2602558  72.3420477
  53.3227110  81.9279003  73.2114887  52.4814844  81.6186523  71.9917822
  99.5256042  83.6161327  52.8037119 100.4393959  83.7658024  53.0462313
  99.0239239  83.9245892  53.5583019 104.9535657   6.1232376  68.9984274
 105.7661105   6.3736343  68.5587645 105.2275134   5.8628272  69.8778439
   5.8263162  31.4899523   0.9110844   5.6266216  31.2161619   0.0158798
   6.4858630  32.1762735   0.8101570  34.4594243  18.4549505  11.0768616
  34.0063051  18.2202751  10.2670109  35.0356677  19.1776497  10.8281147
  47.2574857  51.7617208  16.4838326  46.8527368  52.6066477  16.2875759
  47.1947053  51.2701017  15.6649315  91.4568759  94.1144831   9.3572724
  92.2045899  94.6958573   9.4956791  91.4471246  93.9574559   8.4130871
  18.1484034   4.5767116  70.2218819  17.4036982   4.2303943  69.7302532
  17.9284956   5.4958248  70.3738832  59.4204000   9.3455202   6.8343651
  59.7937921   9.9713261   6.2137329  59.7756532   9.6090586   7.6832306
   4.5368960   5.2856540  77.6212311   3.8481286   5.4101943  76.9683027
   5.3124525   5.6888675  77.2311497  88.1910611   6.4784622  71.2516356
  87.7328015   6.0006427  70.5603218  89.1192962   6.3356208  71.0666847
  60.4710102  80.0831795  47.2840118  61.3118887  80.2891350  46.8756819
  60.5069637  79.1401100  47.4438477  10.7366136   2.8423435  39.1421139
  11.6151479   3.2067282  39.2499840  10.2949813   3.0329592  39.9696743
  54.7589448  20.7312042  18.0318176  54.3078950  20.8638317  18.8655960
  54.7322706  21.5881235  17.6061165  75.7532787  81.0126495  74.5300961
  76.6711855  80.8231926  74.7244883  75.3819275  80.1666927  74.2797327
 105.0724412   7.7526378  74.7754955 104.1653968   8.0555629  74.7337818
 105.1385022   7.3101329  75.6217003  29.7621063  42.5356275  11.4886200
  29.8555902  43.4664518  11.6912377  28.8878396  42.3082334  11.8051350
 102.4510766   3.7222003  79.0509558 103.4031535   3.7449932  78.9547253
 102.1385527   4.4502353  78.5138035  46.8375448  51.8098528   3.3785641
  46.8337682  50.9522516   2.9534447  47.4302438  52.3391230   2.8448879
   4.2814639  52.6251585   1.0846054   4.5931152  53.1587774   1.8155968
   5.0634387  52.4607355   0.5576241  50.0716496  92.7817917  86.1367893
  49.1912746  92.4082088  86.1768913  50.6509972  92.0546341  86.3644505
  54.7040796  90.6457233  68.0960894  54.0861797  90.7851124  68.8137293
  54.1515064  90.4589748  67.3371267  23.1651929  43.6880762   8.4848129
  23.7037996  43.2430345   9.1390812  23.5236219  43.4018881   7.6446640
   8.2923320  12.7782661  17.6950752   7.9347757  13.6526567  17.8494370
   7.9450944  12.5250704  16.8397629  18.4559158  20.0153620   9.4581234
  17.6905349  20.5800564   9.3506634  18.4254649  19.7426063  10.3751385
  68.8789177  68.0490303  84.2483521  68.9727116  68.9633417  84.5156956
  67.9356241  67.8881598  84.2719173   2.3805240  78.4786589   3.0116856
   2.8544858  79.1864855   3.4482205   1.6330627  78.9103872   2.5980007
  54.9709940  86.5899467  76.4687252  54.7556877  86.6076279  77.4012280
  55.7335520  87.1628666  76.3880730 103.2477761   4.3169784  75.9728813
 103.2781936   3.3724880  75.8203888 103.2685090   4.7018432  75.0967121
  13.7211707   5.2848703  11.6953766  13.7452987   5.7200176  12.5476086
  14.0251258   4.3946249  11.8723118  70.9210968  68.2594395  81.9147778
  71.5373850  68.8437271  82.3563957  70.1061964  68.3538008  82.4079990
   0.4447796  95.1957304  29.9077522   0.5099776  94.2478735  30.0241577
  -0.4701135  95.3986247  30.1027691  41.6186523  99.8917294  70.0776482
  42.3964405 100.1851654  70.5521679  41.9606829  99.3349934  69.3781567
  15.8661893  37.2097666   7.4657261  15.0750211  37.7375395   7.3574173
  16.5722183  37.7663023   7.1370518  34.5375303  27.1560366  14.0024483
  33.8212589  27.2425348  14.6315014  35.0621370  26.4279348  14.3354618
   2.0237091  59.4768507   5.3096020   2.7276281  59.1394407   4.7556221
   1.2246803  59.3104155   4.8095143  85.9856511  16.4471816  66.0293245
  86.1793567  16.9321536  66.8315172  86.6381789  15.7471561  66.0091782
  33.8711885  30.6399424  13.2285702  34.3791917  31.3633615  12.8613865
  33.8279107  30.8291609  14.1658795  13.5205701  14.3046696   2.6808273
  13.4384588  15.1846630   3.0483734  14.3703607  13.9932758   2.9924595
 110.9004833  60.5914003  16.2147915 111.3351132  60.0280554  15.5745136
 110.0143291  60.2361757  16.2838757  57.9729414  88.0063725  69.2000866
  58.1019545  88.7245750  68.5805893  57.0739460  88.1159496  69.5099735
  91.0090542  79.7607231  63.8816118  90.0940037  79.5047140  63.7660217
  90.9971619  80.7169914  63.8412571  10.8404830  28.7058908  36.5899384
  10.5336765  28.6953241  35.6832993  11.3335183  29.5227701  36.6664517
  50.2522564  85.1968956  54.0454865  49.4091177  84.9348259  53.6757994
  50.7698441  84.3917751  54.0559340  43.4679464  28.3924848   4.5947945
  43.5740045  28.6012918   5.5229008  44.2625573  27.9106028   4.3653881
  72.0147085  78.9698648  51.0721111  71.6832352  78.5519314  50.2773190
  71.5783691  78.5057831  51.7865753   9.2654994  31.3914568  15.7747471
   9.0209440  31.3532335  14.8501122   9.0770772  30.5144388  16.1087811
  78.6198664  68.9347458  87.5417709  78.0164623  69.6718502  87.4478912
  79.4819307  69.3408966  87.6319122  90.1566887  86.8616390  45.6926918
  89.8606777  87.4643040  45.0104856  89.4480991  86.2230110  45.7720327
  35.1863006  19.5928986  15.8609020  34.6571592  19.4548780  15.0752842
  35.0331929  18.8121111  16.3930237  40.2614883  24.6275741   4.0353405
  39.8879913  25.4993612   3.9060318  41.0901883  24.7866566   4.4872009
  56.9124937  65.2171946  87.7684212  57.0327854  64.2930126  87.9866982
  57.3665905  65.6892300  88.4664249  53.8185361  30.9273416  28.5782730
  54.6962693  31.1397058  28.2609188  53.2298711  31.2996561  27.9217064
  40.2629423  87.7307987  91.4417267  39.5331168  88.3500671  91.4517784
  40.9648991  88.1802368  91.9123650  70.8915377  96.5910244  71.4600706
  71.1524105  97.4124146  71.8765926  69.9530220  96.6908836  71.3005400
  49.4040632  86.6800117  61.0672474  49.7173643  85.8219337  61.3531971
  49.0235567  86.5204430  60.2035427  82.0531512   0.7266998  56.9212294
  81.8253136   1.4463615  57.5097990  81.4454985   0.8161926  56.1870718
  13.9126256  28.8206465   4.2582524  13.6643651  29.6717150   3.8973057
  14.4559720  29.0317614   5.0174915  65.3122807  69.3139219  76.1402798
  65.2348375  69.2331314  77.0909119  64.7008038  68.6639452  75.7940626
  19.6588138  39.8767454   9.0271198  19.4385865  40.0286753   8.1080734
  20.1726964  40.6436235   9.2802059  87.1242811  10.8449013  17.8694069
  87.0059933  10.5677492  16.9608795  86.2344207  10.9297497  18.2117283
  57.0617056  95.1922321  46.0720539  57.3272419  94.3706608  45.6588268
  56.3816595  94.9377728  46.6957712  60.2143764 106.5927124  59.3955183
  61.0305643 106.2825108  59.7877502  59.6498394 105.8199978  59.3746233
  89.4563962  14.5308208  80.5168629  89.1364098  14.6452140  81.4117050
  89.6252156  13.5916805  80.4410839  16.4154199  79.2044908  12.6060116
  15.9853700  79.3611795  13.4466850  15.8851436  78.5256941  12.1885597
  72.4884796  94.3992233  83.7754250  71.9426298  94.2225456  83.0092144
  71.8637705  94.5598507  84.4826508  79.4021368  85.6850624  71.3512993
  78.7600994  86.0395718  70.7362032  79.2123413  86.1288261  72.1779060
  52.1597150  29.1302187   8.4158528  51.5643075  28.7235434   7.7862942
  51.8834451  30.0460607   8.4496987 104.5251586  58.1392557   5.1489460
 104.7819306  58.0054075   4.2365944 105.3345753  58.3967859   5.5902493
  67.7223015  69.2241907  88.1580448  68.1633139  70.0713539  88.2217407
  66.7909956  69.4328928  88.2311440  65.8016825  77.0326710  70.5059814
  65.7017517  77.9772282  70.6245470  65.8878517  76.9178677  69.5596027
   0.4065421   1.7856342  35.4181492   0.9566429   1.9891436  36.1745941
  -0.2867600   2.4451811  35.4418194  61.1340860  33.5576612   9.2384922
  60.8762792  33.6117536   8.3182537  60.3061059  33.5331423   9.7181523
  30.9783557  30.0519735  13.2019055  31.4782527  30.1236326  14.0150463
  31.2026647  29.1872007  12.8582680  34.5745710  34.7098715  16.4593422
  35.0334314  33.9061434  16.7036831  34.2862991  34.5569689  15.5594742
  73.6496067  66.2440395  66.6591644  74.1292238  65.6492138  66.0826397
  74.2566013  66.9674969  66.8153620   4.2854454 104.4184763  26.3830483
   3.3677485 104.1478999  26.4122593   4.2534544 105.3751118  26.3907921
  24.8947290  20.0114281  15.3729927  24.2282871  19.6257526  14.8043644
  24.6554569  20.9365398  15.4291451  41.2124351  23.3009035  14.8827564
  40.8651498  22.5920612  14.3413078  41.3299039  22.9066021  15.7470333
  35.9953311  75.8028871   6.8564427  35.6551793  75.5655176   5.9937775
  35.7791236  76.7304212   6.9522297 103.6635924  16.7466640  71.1390877
 102.7348758  16.6191291  70.9455872 103.8267089  17.6673412  70.9341908
  18.2061151  27.1866400   4.0675366  18.8925126  27.0636923   3.4118092
  18.5360339  27.8862841   4.6313488  17.8203585   0.7648754  76.3842583
  17.4879649  -0.1268960  76.4867544  17.0516970   1.2803935  76.1400509
  11.8958476  33.8821871  22.3349774  11.2600425  33.2174665  22.0701611
  11.3621763  34.6204550  22.6288902  32.7850488  56.6247541  11.3778507
  33.1868842  57.4775106  11.5438568  32.7012494  56.5808088  10.4253399
   8.4040073  37.7165491  14.9646771   8.5328248  38.4007246  15.6215965
   8.4896138  38.1703550  14.1262543  71.0938406  94.6618938  89.2403126
  70.3167534  94.5129490  88.7016201  71.3286257  95.5749607  89.0747643
   9.4722942  64.2657549   6.5441715   9.2775157  65.0774748   7.0125687
   9.5174983  64.5251924   5.6239140  62.1308565  73.2442331  59.1068745
  62.8470945  73.4588146  59.7045231  62.5236607  72.6528311  58.4648561
  29.8033670  68.5585291  38.8204968  29.8921541  69.3977434  39.2722237
  29.1743520  68.0673963  39.3490421  45.8951906  44.9902613  11.9118511
  44.9905828  45.0742037  12.2132790  46.2742093  45.8587915  12.0468533
  13.0014098  97.5297737  81.9847012  13.0457795  97.3324490  82.9202938
  13.9092219  97.4779224  81.6856670  87.6366044   3.6560821  89.9129772
  87.8424502   4.1304492  89.1074753  87.5102092   2.7499294  89.6316624
  91.1103821  94.9110699  86.7617798  92.0054436  94.5794487  86.8332481
  90.5852699  94.1393948  86.5496635  52.8313828  92.4766254  89.7974205
  53.1024742  92.9223156  88.9948654  53.0624008  93.0852890  90.4991341
  76.8222380  61.7211199  77.9822016  76.7096949  61.3332939  78.8500500
  77.7628899  61.6639423  77.8144598  69.9982405  84.6593761  67.5061464
  69.9283791  85.4984951  67.9613638  69.1506147  84.5493317  67.0752716
 101.2338352  89.1707706  80.4575920 101.1447811  88.7697792  79.5930099
 101.0461903  88.4606743  81.0714245  28.6454061  41.5686113  18.8505757
  28.7787154  41.7699224  17.9243290  27.9557517  40.9048349  18.8545620
  47.6772070  75.2196789  87.0302391  46.9684696  74.9128532  86.4647579
  47.2330713  75.5680084  87.8033161  63.6628199  67.0879650  89.0167522
  64.0977144  66.3207102  88.6446953  63.8405609  67.7906704  88.3915710
  40.6340122  93.9599800  67.6096678  40.6373405  93.1388474  67.1177721
  39.8161530  94.3877888  67.3560524  55.3646374  96.2864113  84.9452686
  55.7309532  96.9797611  84.3963528  55.7145071  96.4623737  85.8186817
  81.9164181  55.5741739  88.0991745  82.3441124  55.5226898  88.9539528
  82.6072598  55.3595257  87.4723625  72.4698854   1.1179542  56.2462711
  71.8997432   1.0289764  55.4825592  71.8700338   1.1381149  56.9919300
   9.7933725  69.7229177  31.3278210   9.6201423  70.6420214  31.5314781
  10.1227287  69.3539602  32.1473515  51.8868399  84.3113518  77.2622728
  52.2483349  83.4282780  77.1865034  52.5278616  84.7881413  77.7895260
  43.2094288  76.7441893  51.6115952  42.4768114  77.3185587  51.3888788
  43.3111334  76.1780834  50.8464718  83.3884048  71.4815521  65.8960438
  83.2358932  72.4259567  65.8633471  83.4761906  71.2852621  66.8287802
  58.9484024  75.8049440  66.4569664  59.0641546  76.5522957  67.0437384
  59.8373604  75.4920530  66.2893963  26.4207366  56.9143278  27.7686226
  25.5259708  57.0437796  27.4541962  26.7385438  57.7973635  27.9569447
  62.2127151  92.9883003  90.7557964  61.4507151  93.2174683  91.2878418
  62.4986458  92.1417427  91.0990334   4.4738820  72.4324305  18.8761341
   4.3935827  71.7354185  18.2250130   3.5722307  72.6246721  19.1336357
  90.9073354   3.4774207  54.1332960  90.8291961   3.4355449  55.0863791
  91.3075829   2.6429653  53.8888979  45.0953770  60.2478981  86.6362762
  44.4832277  59.9132729  85.9808922  45.6508875  59.4982529  86.8499756
  59.7217560  86.5255833  63.6135244  60.4603338  86.2435246  63.0739164
  59.0824795  85.8176708  63.5334396  95.0824642 101.4586067  64.4470167
  95.7429409 100.9863186  63.9401197  94.4895077 101.8211937  63.7888622
   2.6139406  13.5985500  12.6886856   3.2503751  13.0321819  12.2523224
   1.8912772  13.0143721  12.9183018  57.2197247  97.6746559  87.6083374
  57.9771423  97.4242687  87.0793247  56.8680239  96.8449020  87.9308987
  92.0364978  33.9272863   1.9751751  91.0990740  33.9580423   2.1662914
  92.0931353  33.4952337   1.1229145  39.4788551  96.1847687  65.8149433
  38.7666249  96.4933681  65.2548361  39.9029660  95.4947567  65.3047943
  49.9383688  98.2880402  72.8013611  50.1677608  97.9786873  73.6776686
  49.1234159  98.7746906  72.9248667  39.8045924  34.6796114   3.1230080
  39.7505620  35.5757887   2.7910816  40.3397849  34.2171842   2.4780571
  14.2677739  48.0212004  17.0874512  13.9829114  48.7193663  16.4978325
  13.7359098  48.1403429  17.8743183  43.3171558  96.8136501  91.8060780
  43.3155441  96.0696030  92.4082470  43.8593340  96.5260983  91.0715103
  40.8045343   8.3535463   3.7709820  40.7444194   7.6978428   4.4657242
  41.2538865   7.9038126   3.0554020  58.9167881  97.9267025  59.2154741
  58.1901503  98.5440350  59.2998505  59.6843433  98.4190083  59.5065546
   3.4992173   9.9217224  63.4308290   4.0868142   9.1903495  63.6207342
   3.0595734   9.6710014  62.6183701  71.9468641  78.8380527  75.5090857
  72.1227884  79.7103882  75.1565075  72.7516794  78.5986853  75.9686613
  47.6707888  94.0833378  64.3700600  47.7196646  94.7160435  65.0866699
  47.3187685  94.5827198  63.6332226  54.3393278  78.0783939  61.5244102
  54.1269493  78.0450964  60.5916643  54.3817472  77.1607208  61.7933083
  79.1375780  57.3244715  79.0936136  79.5182133  56.6932917  78.4829044
  79.7139549  57.2963572  79.8573065  64.8158264  75.9773827  82.3077679
  65.0296068  76.6997814  81.7172813  65.4553270  75.2974510  82.0957184
 108.9042950 104.4215965  83.3054352 108.9247036 104.8635769  82.4566364
 109.3298054 105.0345802  83.9049530  75.2999592  81.9666767  70.8052778
  74.5242119  82.2827148  70.3420591  75.6924772  82.7548885  71.1806250
  16.7720892   2.5958251  90.8978653  16.5976908   2.7035140  89.9628735
  16.2152674   3.2486629  91.3221169  73.5678816  81.7168903  63.5859203
  72.6827955  81.7364120  63.9498901  73.7340021  80.7908344  63.4096575
  59.8129225  81.1440659  86.4401245  59.7403717  80.5035877  85.7324886
  60.7519531  81.3145542  86.5135288  31.5753129  40.8257276   1.0662758
  32.1914056  40.1275331   1.2880528  32.0760587  41.6330797   1.1831677
  53.2580137  90.1729584  77.3834896  54.0876150  90.4992485  77.7320910
  52.8194284  89.7794914  78.1378508  42.8458405  93.5451508  77.8691530
  43.2041693  93.8377380  78.7071419  42.4148846  94.3203545  77.5091839
  38.7046885  57.7365732  81.7753601  39.1617322  58.0499697  80.9948921
  39.2858768  57.0701361  82.1418476   5.2927354  20.3113348  19.8875630
   6.0707382  20.7100231  20.2774155   5.5108217  20.2174503  18.9602768
  62.5722885 104.8882580  92.1141148  62.1400595 105.1292896  91.2947845
  62.4665117 103.9385796  92.1703529  91.4884663   6.5967655  69.2301083
  91.5386582   5.6767845  68.9705801  92.3947574   6.8433284  69.4147015
  49.7351408  74.0362692  50.2053785  48.9422655  74.5531750  50.3481531
  49.8800516  74.0761185  49.2600536  87.5728035  51.5973949  85.9458351
  88.3158207  51.2059307  86.4051056  86.9910908  50.8604097  85.7595825
  14.1435435   5.7840347  57.6499176  13.3451083   5.9772491  57.1585894
  14.8098185   6.3464641  57.2549772   6.2292674   3.2118892  55.0963974
   7.0042422   2.6970958  54.8713684   6.4902022   4.1191577  54.9382877
  40.9086183  42.6876718   9.7391808  41.5070823  43.4343035   9.7143662
  41.4160016  41.9875605  10.1498329  21.7319253  31.7663271  14.0460503
  21.0758022  31.5071756  13.3990776  22.3360351  32.3294908  13.5621750
  83.3307219   0.1239585  68.6671829  82.7781916  -0.1876164  69.3840218
  83.0791188   1.0402488  68.5516977  57.8145266 104.7305489  90.1797962
  56.9609118 104.3265343  90.0237656  57.6101017 105.5738354  90.5839062
  92.5109482  95.2305508  67.9181671  91.9292927  95.1673126  67.1605968
  92.4516678  96.1464691  68.1898546 102.1224976   0.0119399  62.0993090
 101.5224267  -0.4096318  62.7144670 102.2970248   0.8703708  62.4851608
  65.6619787  88.5692310  61.2020302  66.3770008  87.9440689  61.0830736
  64.9958611  88.2939339  60.5721664  20.7773116  28.8246519   4.4722759
  21.6970685  28.8129694   4.2074215  20.5524448  29.7540361   4.5159924
  76.9752789  93.1711674  82.7217388  77.3611212  93.9804363  82.3864079
  77.5840664  92.4846649  82.4491310  71.7641830  88.2123089  85.1210308
  72.1104670  87.4884701  85.6429291  72.3926640  88.9226723  85.2499676
  97.1117687 101.5284157  81.5606976  96.5943241 101.2618351  80.8008099
  97.9581547 101.7863560  81.1955643  38.5276892  11.6506576  71.5813780
  38.7903407  12.5071525  71.2442350  39.2234614  11.0578155  71.2973356
  91.3994933   4.4327545  59.3714762  92.0353986   4.9530696  59.8625231
  91.8698121   3.6301517  59.1459846  36.0421899  52.4195654  10.3355515
  35.5331186  51.6829092   9.9972832  36.8928293  52.3412496   9.9036801
  78.7166644  15.0025176  77.8644943  78.4092379  15.5759429  78.5665655
  79.4895984  14.5711135  78.2287598  81.6311264  93.1128025  56.2872601
  82.4743557  93.4464836  55.9808969  81.3533306  93.7403679  56.9545078
  15.5592349  26.0037803  83.4789562  16.5032484  26.1379146  83.3947563
  15.4608920  25.4897880  84.2804432 101.4965343  87.8356361  91.6917896
 101.1762428  87.1931458  91.0586643 101.2434292  87.4794102  92.5434208
   0.3151371  78.0519915  34.5797563   0.7558014  77.6306963  33.8418102
   0.8587410  77.8370762  35.3377366  45.2868938  78.6232424  66.2543058
  44.9644899  77.9985905  66.9040012  44.9178648  78.3185244  65.4253340
  23.4785750   2.1025943  91.5623856  24.2935564   1.9000911  91.1030006
  23.5174372   1.5775966  92.3618221 100.3128433  99.5025063  72.5070381
  99.7215843 100.2550888  72.5232506  99.7770596  98.7841797  72.1706343
  94.3823910  89.7099209  92.5129795  95.1564312  90.1918507  92.2216988
  94.5977783  88.7912083  92.3523617   3.2226803  17.9306888  68.5489845
   3.8790562  17.3273181  68.2006407   3.7319376  18.6053180  68.9981699
   4.2806055  37.0424365  63.7316370   5.2377131  37.0490455  63.7427568
   4.0286972  37.6150703  64.4561100  67.8417730  96.9897366  72.8637791
  66.9643354  96.7071533  73.1216145  67.9848003  96.5789509  72.0111179
  18.9002421   0.3854656  89.9213219  17.9834845   0.1670741  90.0889397
  19.3461993   0.1968955  90.7470322  59.1880655 101.5142632  69.6396542
  58.7717581 101.6852760  70.4844475  59.8625374 100.8630085  69.8324871
  48.8929895  36.2567884  11.6181671  48.7570813  35.6124384  12.3128426
  48.3952573  35.9162027  10.8748638  74.6317626  14.1197109  56.3357353
  74.3852163  13.1999492  56.2383366  75.5739737  14.1342067  56.1676264
  77.7398018  -0.2345294  11.9526875  77.8503327   0.3134614  11.1756909
  77.0935873   0.2306825  12.4839222  58.9800263   4.9592208  74.0010214
  59.5745564   4.3268394  73.5974693  59.4528700   5.2748775  74.7710896
  95.2853298 105.8927727  84.9026203  94.7770882 106.5567017  85.3685856
  94.7893238 105.7310009  84.1001034  32.6367286  33.2740576   1.1761486
  33.5049251  33.6733992   1.1214077  32.1028474  33.9234144   1.6339028
  92.4198532  99.0329838  48.8703537  91.5449905  99.2370510  49.2008162
  92.7072239  98.2876015  49.3976641  71.8501046  98.4287531  49.5401394
  72.2312978  99.3038160  49.6121895  71.9853547  98.0368120  50.4028809
  53.6711931  84.1979122  56.7141104  53.9920712  83.9134026  57.5698709
  53.4393787  83.3860111  56.2632084  81.4816382   1.3318252  59.8021698
  81.6959097   1.0661601  60.6964540  82.2963908   1.6995334  59.4598246
  84.9856949 106.7805767  87.6299381  84.1684055 106.6776180  87.1424294
  85.6719017 106.5938091  86.9892502  63.4027052  88.6136532  78.5081053
  63.3370066  89.2536545  77.7993631  62.5036001  88.3154488  78.6456442
   1.5424683   3.7479782  52.0310211   2.2378447   4.4053459  52.0077944
   1.6625216   3.3018493  52.8693438  65.7163289  53.0230028   6.8861878
  66.5105298  52.5429708   6.6515743  66.0115007  53.9237196   7.0196640
  62.9028797  89.9180698  88.4841728  62.8798294  90.7481670  88.0080891
  63.6125803  90.0248432  89.1175365   3.8795283  17.6752662  84.5048428
   3.3087304  17.7270126  85.2714920   3.9671185  18.5816574  84.2098427
  81.0694981 100.1762581  55.6497049  80.8395576 100.2153206  54.7213554
  81.0565281 101.0888290  55.9382725  89.3541385  15.2109718  77.1080971
  89.0938235  15.7248306  76.3436270  89.8507453  15.8235454  77.6506519
  33.2984546  47.2171385   7.7060425  33.3471874  46.7104513   6.8954193
  34.1190723  47.7093012   7.7305710  89.3622398 106.0842705  74.1661453
  90.1400566 106.4412498  73.7374115  88.9833641 106.8288040  74.6334267
  73.8934469 104.4264221  52.8956175  73.9332056 104.1388702  51.9834948
  74.7418833 104.8405361  53.0533934  69.4705677  74.3460608  86.7129040
  69.0018654  74.9587631  86.1462021  69.9697828  73.7956715  86.1095047
  55.0305990  33.4730608  23.3975327  55.9516767  33.4013349  23.1471455
  54.8740724  32.7112944  23.9556038 112.3374654  10.7903098  75.0043011
 112.5399066  11.2534713  74.1914511 112.4624682   9.8656749  74.7906303
  89.2640972  99.3563747  68.5504913  90.0041199  99.9240208  68.7658596
  89.5461464  98.4823990  68.8203764  95.4886436  97.5650883  72.2641134
  95.3134823  96.6533566  72.0310974  95.6299496  97.5474834  73.2106590
  96.4695263 102.6838779  74.2574835  96.4306164 103.6356068  74.3520117
  95.9122849 102.4952030  73.5024261  47.1766618  40.4513437  25.5781758
  47.7011731  40.1830084  24.8237717  47.1905187  39.6926004  26.1615765
  53.4302807 101.2543678  55.6766510  53.3053350 102.1947861  55.5492306
  53.7994957 101.1788559  56.5565443 105.2544975  81.2045288  77.8248072
 105.9570789  81.1277771  77.1792603 104.7661495  81.9826412  77.5559378
 112.7106810  19.9592113  81.6312122 112.4094773  20.8660411  81.6874409
 112.3779059  19.6480560  80.7893848  56.7035726  69.0905935  12.8633034
  56.8200830  68.8916380  11.9342816  57.5765088  69.3407709  13.1659805
  40.5311301   1.3076877  89.3067169  40.6881430   2.1199893  89.7881126
  40.4875758   1.5775203  88.3893681  84.5048858   9.9349212  77.1919632
  85.0050546   9.8190593  76.3841009  85.1450921  10.2585506  77.8257036
   3.3905174  97.3716927  85.0154591   2.9848625  96.6079044  84.6052170
   2.9288246  97.4697971  85.8481979  73.0843115  82.8206825  69.3637419
  72.7731657  82.2853088  68.6338186  72.2886705  83.0712414  69.8332167
  78.3271980  74.2482328  75.4931307  77.4353170  74.5845604  75.4055786
  78.4207487  73.6267281  74.7711802  93.1049777  34.6911525  79.5216560
  93.3093024  34.8364257  80.4454422  92.1801997  34.4441699  79.5168686
  73.4199193  61.6794092  26.0957157  73.4941533  61.0000021  26.7658817
  74.2457155  62.1604235  26.1497986  21.1037257  67.8884775  22.0684921
  21.7174629  68.6203939  22.0063507  20.2390960  68.2958872  22.0168602
  66.5566921 101.5522861  68.4440804  66.7165947 101.2145042  69.3253088
  67.2640991 102.1799183  68.2961369  78.7550211  99.5654869  71.5554714
  79.2900896  99.0069580  70.9915781  78.4290171  98.9765739  72.2360086
  28.4086421  17.4994690  18.0847275  28.4130290  17.4955065  19.0419113
  27.9003242  18.2760651  17.8507626 109.2871428  12.9184436  60.5739164
 110.0344373  12.3337936  60.4475307 108.5212613  12.3633098  60.4273319
  56.7829609  98.4999752  62.6088858  57.5689125  97.9789352  62.7732754
  56.8527079  98.7549400  61.6889095  69.2605114  87.9953289  91.2252426
  69.9079895  87.8008175  91.9028664  68.4242725  87.7343941  91.6110420
  76.9213057  93.0500507  87.6672459  76.3870573  92.9626846  88.4566593
  77.5652266  92.3450184  87.7345753  22.2979834   4.3772983  57.0856905
  21.4637377   4.8084163  56.9002151  22.1078970   3.4426975  57.0043755
  49.2483381  21.4418489   9.4435990  48.4871248  20.9574110   9.7631371
  48.9386705  21.8781502   8.6498844   9.5192769  35.2423174   2.4722778
  10.3397754  35.5378134   2.0777046   8.8462404  35.7827074   2.0584786
  39.9156713  93.6416340  44.4158125  39.7630405  94.1459465  45.2149439
  40.1002836  92.7544308  44.7240782  12.3994925  28.9781379  59.5898867
  12.4628260  28.5555457  60.4464149  13.3069422  29.1572093  59.3434858
  94.3930674  35.2852153  74.8339272  94.7155095  35.1581668  73.9416742
  94.8139764  36.0930728  75.1279497  64.1234922  79.5838642  82.5860023
  64.4812393  79.0925455  83.3255005  64.4727945  80.4684067  82.6946831
  30.1155570  44.7716696   1.2658035  30.6619170  45.5517084   1.3620960
  30.3949550  44.1943533   1.9763481  18.1627990  91.7502022  76.9134235
  17.8687526  92.0258617  76.0452175  19.0328743  91.3797474  76.7651892
  22.0889428  40.7169229  14.0819943  21.4452937  40.9000379  13.3975804
  22.8590253  41.2260134  13.8289559 107.6038123  15.4524516  73.2275105
 107.7114726  16.2335491  72.6847982 108.4673262  15.3090190  73.6148119
  73.9619875  79.5102310  80.4514599  73.1134224  79.0675116  80.4385471
  74.4809914  79.0148067  81.0850525  62.7279046  39.9297029  14.3408787
  62.3913816  39.0457518  14.1938507  61.9684938  40.4989035  14.2162811
  92.1301890   0.5606555  63.1439638  92.2031785  -0.1868630  63.7373638
  91.2065316   0.8086776  63.1836653 109.6678162   9.2670631  90.9313965
 110.1679040   8.7887382  90.2700615 110.2760411   9.3703937  91.6632462
  89.8295879 101.0921860  59.2802048  89.6464252 101.1886215  60.2147579
  90.2690506 100.2448654  59.2084503  71.7375422  63.8857031  61.6659355
  72.0051861  63.0268145  61.3389730  72.5577116  64.3166685  61.9063997
  59.9791241  93.4674644  62.2444010  59.4361067  92.9175758  62.8091955
  60.8780861  93.2491589  62.4902439   8.8391974  11.9157504  90.9008312
   8.5348036  11.6336345  90.0382805   9.4730666  12.6088333  90.7162476
  17.1796420  20.9638023  67.7345085  17.3846438  21.4602088  66.9421768
  17.5313475  21.4959049  68.4482288  68.3406830  96.4665890  59.6187305
  67.9008007  95.6229496  59.7236443  69.2187071  96.2422085  59.3105745
  50.3043890  76.4009953  90.7572269  50.0273085  75.4881811  90.8361530
  50.2809763  76.7367458  91.6532993  93.0140305  17.9350185  74.8316669
  93.1569482  17.9289722  75.7781172  92.0851041  18.1428623  74.7310305
  66.6334298  19.9888737   5.4793656  66.9235853  19.4384224   6.2067139
  66.1306337  19.3986446   4.9180615  99.9759532  10.3673648  71.0128736
 100.4278661  10.9439086  70.3967571  99.2866231  10.9136390  71.3905525
  14.0215686  41.4046747  19.3247235  14.0950301  40.5466730  18.9067757
  13.0794767  41.5450174  19.4195664  34.4269278  13.2356452  86.4495945
  34.8033717  13.3147334  87.3261070  34.6450236  12.3450756  86.1747265
 112.7429581   1.3393592  88.1551933 113.3045817   0.6009960  88.3910465
 112.3312045   1.0739898  87.3328400  61.4587879  80.2002335  69.4526529
  61.9491720  80.9995937  69.2609024  60.9809637  80.0127506  68.6447144
  52.0784906  64.2509157  20.4131519  52.7277044  63.7379534  20.8944332
  52.0302347  65.0812513  20.8868992  56.1697152  14.5309717   6.8850338
  55.6076864  14.2398865   6.1669552  55.7939390  14.1215498   7.6643860
 100.3823948 101.5970421  79.7124672 100.1749420 100.9126854  80.3487492
 100.2129841 101.1924076  78.8617039  62.8904963  77.8672791  77.7491665
  62.6383734  78.2650852  78.5824823  63.8455677  77.8162241  77.7873755
  43.0455259  37.3237116  21.4961636  42.6506379  37.2419149  20.6280529
  43.4110502  38.2082540  21.5106404  10.6800988  45.7115156  27.2502243
  11.4476159  45.7839567  26.6828549  10.8356145  44.9186499  27.7634537
 109.6285153  26.7975234  58.8989973 109.6675588  25.8444404  58.9785719
 109.2090178  27.0884895  59.7086859 100.1450539   1.5439510  57.2510290
  99.4949532   2.1867275  56.9674110 100.1060868   1.5697193  58.2070875
  90.5550385  90.6343555  87.8936958  91.4289474  91.0135746  87.8004551
  90.5578709  90.2374172  88.7647057  87.0630265   2.8203201  71.9963932
  86.3484956   3.3970642  72.2666550  86.6955853   2.3036193  71.2792873
 111.8489266   2.4743652  78.2006979 112.5775243   2.0089816  77.7898455
 112.1238471   3.3912086  78.2077169   5.4196313  62.4647600   9.4701874
   5.4276899  61.8080122   8.7738812   6.0439304  62.1358091  10.1169312
 110.1155330  33.7576181  13.6429703 109.5300533  33.7670404  12.8857720
 110.3046204  34.6807844  13.8110268  34.2545083  34.8607428  30.3355896
  34.7548822  34.9982244  31.1399281  33.4253314  35.3137094  30.4889595
  10.6335452   2.7978897  53.7755394  11.2515452   2.7535819  53.0459166
  10.6678584   3.7101268  54.0634203  41.7858603   2.6342201  72.7705240
  41.2311461   2.0942974  73.3335590  41.9744780   3.4122371  73.2952547
  15.9180834  11.6828060  89.1559792  15.3951933  11.9482707  89.9125195
  15.2729514  11.4251232  88.4974670  72.4278307  71.1824226  78.7466335
  72.3320866  70.2635002  78.9969206  71.6814041  71.6209221  79.1550446
  35.1078132   2.4783785  17.0797646  35.6035283   1.7611439  16.6847050
  34.4931033   2.0464641  17.6729023   4.1881707  55.3629207  89.7532368
   3.2771780  55.3752803  90.0467777   4.1359665  55.1628398  88.8186359
   4.7688200   0.5638027  91.7853165   4.0947630   0.0934123  92.2758293
   4.9819758  -0.0163842  91.0544491  83.0460835  76.2813044  23.5671639
  83.9386845  75.9503317  23.6669040  82.6982117  76.3044453  24.4586110
  93.2581521  17.9211521  70.0209761  92.8098584  17.9746818  69.1769361
  92.8146029  17.2098445  70.4830694  46.9593859  93.6870480  73.0455112
  47.8021908  93.4205437  73.4127808  47.0748806  94.6118641  72.8273106
  15.4414751   2.6618480  85.4777908  16.2166789   2.5896644  84.9209404
  14.9507811   1.8571472  85.3107166  63.0557632  95.4514408  89.3547440
  63.8101959  95.1851654  88.8292313  62.8517342  94.6828556  89.8875523
  57.2914743  90.9636593  68.8041878  57.0403814  91.8692398  68.9861536
  56.4797831  90.5421734  68.5217953  69.2848492  91.8509865  75.8796930
  69.5134783  91.7607117  76.8047953  69.1868401  90.9511852  75.5682850
  46.0711053  39.5357687  13.2354366  45.9106687  39.0500719  12.4263775
  45.9047273  40.4493792  13.0033314  92.4947643  94.7215939  90.0090504
  92.2585678  93.7970448  89.9338341  91.6566372  95.1839447  90.0058460
  20.6347372  28.8671779  77.3648930  19.9145033  28.4415721  77.8300190
  20.3292563  28.9341354  76.4602232  29.8112253   8.6384851  23.0165112
  29.8227981   9.4146521  22.4564469  30.3778747   8.8664610  23.7535107
  87.3345521  32.4947054  12.4879276  87.7534345  31.8761141  13.0863678
  87.6975778  33.3463652  12.7310764  10.5933955  32.1219634  92.3388195
  11.3712504  32.2098064  91.7879486  10.9161570  32.2488403  93.2309818
 104.9689865 102.6136684  79.1112041 104.2058945 102.9864216  78.6696482
 104.6500874 101.7944908  79.4900084 112.4858905  24.8010826  59.6414995
 112.8871442  23.9639472  59.8748112 111.9159747  25.0081920  60.3821278
  45.3131962 104.5467281  75.1352406  45.4001808 105.2724648  75.7532787
  44.6343136 103.9888763  75.5149031  78.2392931  87.3121452  43.5665274
  77.4401093  87.7804470  43.8078403  77.9530478  86.4110374  43.4172249
  80.1123333 105.7304478  80.2676582  80.1317596 105.3588963  81.1495972
  80.4996395 105.0527287  79.7136545  53.8459969 103.9057541  81.1015987
  54.4494152 103.5773754  80.4350567  53.3325863 103.1397152  81.3581657
 112.0349742  33.5599708  81.0621071 112.8108645  33.0463504  80.8375740
 111.4835788  32.9559612  81.5594673  57.1924067  90.6032944  59.5546770
  57.8210068  89.8881531  59.4563341  56.5885973  90.2999020  60.2326155
  93.8443851  73.1990623  87.6463985  94.4510174  73.0407906  86.9230747
  93.2796001  72.4263477  87.6587582  85.6826878  90.6329918  63.1612539
  86.2614632  91.3949585  63.1354761  85.8690929  90.2190304  64.0039444
  20.2745488  71.5444357  27.7670967  20.2996257  70.7130129  27.2934448
  20.4981855  71.3133223  28.6686527  24.3512872  34.6177370  42.9451573
  24.5159725  35.1421053  43.7288296  24.9551347  33.8788301  43.0201256
  57.4321893  75.5496389  22.4414265  56.9346956  74.8205549  22.0710671
  57.7543500  75.2184278  23.2797253  65.7714036  29.2218573   1.4769852
  65.9921411  28.3727915   1.0941136  66.1686185  29.8616106   0.8860790
  92.1469116  85.3590775  90.4647064  91.7200851  86.2073994  90.5847836
  91.6402435  84.7567844  91.0094643  46.9717503  99.2813301  67.0865393
  47.7345800  98.8896656  66.6612005  47.2673845 100.1513863  67.3545694
  60.9791183  68.6500549  58.9878988  61.0554409  67.7056360  58.8519526
  60.9769583  69.0197277  58.1049681  79.5206216  66.2802965  12.6487076
  79.9262956  65.9864313  13.4643662  79.0184930  65.5241091  12.3449337
   1.8123677  18.2637882  75.3701973   1.3352635  17.7939605  74.6861935
   1.6078856  17.7876853  76.1750269  46.2517789  22.5517637   3.5094273
  46.4487508  21.6169245   3.5686314  46.0681585  22.6995689   2.5817024
  47.4957803  57.3562700   7.2942936  48.3364251  56.9538481   7.0761120
  47.4272397  58.1044084   6.7011463  77.9741430 101.6981316  87.1948338
  77.5553083 101.6182327  86.3378525  78.5383987 102.4671841  87.1148777
  98.5873462  30.4060649  88.3161831  98.9497138  30.1227283  87.4767494
  97.9130555  31.0441207  88.0828476  52.0549920  71.5107901  12.3532879
  52.6540521  72.2445280  12.4910748  51.2149671  71.9223101  12.1502125
  79.9696779  65.8974218  50.6085396  79.6951151  66.7880297  50.3902197
  80.9261513  65.9308672  50.5922031  24.4511702   8.1073856  74.8119164
  23.9335349   7.7563285  74.0873241  25.3597262   7.9466247  74.5571423
 113.5770512  68.7492800  42.4073029 113.6668968  67.9639006  42.9470634
 112.6409531  68.9481115  42.4276781  97.2308493   8.1969451  77.9314041
  96.3787175   8.2887935  78.3576298  97.2823096   8.9441490  77.3353672
   7.6338484  11.8549728  72.2257805   7.0510485  11.7316627  72.9750347
   7.2574904  12.5945949  71.7487717  89.4742870 101.6925049  61.8622541
  89.6904659 102.5486946  61.4928865  88.6120415 101.8139458  62.2597790
  85.9921409  24.1697502  73.1796694  85.4817391  24.9769973  73.1158447
  86.9028807  24.4634151  73.2028913 102.3593427   5.1877593  73.3628893
 102.0293809   5.5543804  72.5425529 101.6317225   4.6664428  73.7020493
  93.2768154  89.0375996  89.2447186  93.5884190  89.1333580  88.3447361
  94.0304089  88.6927414  89.7236729  79.1039753  54.5677042  90.0563145
  79.9385929  54.5790958  89.5877934  78.5242844  54.0470648  89.5003223
  31.3189700  60.8944208  27.1900856  31.0060314  61.6038401  26.6288101
  31.9066480  60.3873426  26.6299736  15.3258565  52.4060041  22.5832474
  15.2862647  52.6600439  21.6612255  14.4098571  52.3227674  22.8483021
  82.3114539  30.5060291  89.5106220  83.0815268  30.1503944  89.0670681
  81.9202662  31.1012077  88.8711166  51.4646006  91.4682579  56.5556097
  51.1386013  90.5725861  56.4676905  51.7372036  91.7118454  55.6709719
  86.8689251 106.1545753  90.1171303  87.7687931 106.4714718  90.0393295
  86.4611244 106.3841152  89.2821121  27.3806289  50.3570539  31.9051945
  28.0182079  51.0680658  31.9699299  26.7796710  50.5070478  32.6349747
   1.4296009   1.0433006  81.3831615   0.8100607   0.3287601  81.5309525
   0.9305766   1.8368625  81.5767002  74.3252373  87.5128365  41.3881350
  73.9190960  87.2291565  40.5691051  74.4467592  86.7052937  41.8874836
 110.2088451 106.0553360  51.9703865 110.8363247 106.6416836  52.3931217
 109.7640324 105.6172466  52.6959562  79.2559576  90.1435852  77.4372101
  79.9906397  90.3806686  78.0031300  78.5191822  90.6525517  77.7753687
  44.0977338  52.7665312  18.8326275  43.8385251  53.1978399  18.0183708
  43.3673528  52.9250414  19.4306576  39.9447492  70.8087713   0.1550114
  39.0392259  71.0249979   0.3775227  40.4154685  70.8639795   0.9866345
  56.4494514  86.6391373  73.0965424  56.0248709  87.4047756  72.7095413
  56.1028624  85.8970737  72.6011133 105.5524635  73.0807638  69.8004961
 106.2516022  73.0951214  69.1468620 105.7081699  72.2793245  70.3001833
  26.2274507  78.0841619  21.8511402  26.2225536  78.8332350  21.2552368
  26.9355014  77.5264151  21.5289509 105.9964466  79.1349697  88.9488888
 106.8649006  79.3611240  88.6159134 106.1635590  78.4864330  89.6327877
  66.9734815  28.9302046   6.3902962  66.5712312  28.2293398   5.8772576
  67.9137662  28.7612421   6.3307488 101.8418313  30.6835651  81.7400646
 101.6268350  30.1436805  80.9794521 102.5142670  31.2866687  81.4233112
  96.7374326  25.3228378  82.4047470  97.1121407  24.9781608  81.5941811
  97.3569394  25.0603675  83.0855942  98.8132001   3.5257339  56.0849667
  98.0048467   3.8739490  55.7087421  99.3573762   4.2978382  56.2397480
  75.2537752  11.6176795  81.0056114  74.6152926  12.3300361  80.9722424
  74.7231031  10.8216190  81.0355949  19.0727523  31.6743357   0.1260292
  19.7385982  31.6413862  -0.5608452  19.3111900  32.4360353   0.6544029
  42.3677114  88.9546663  23.1557858  42.6338533  89.0407450  22.2403633
  42.9274896  89.5717890  23.6269962  21.2808325   6.8527030  75.6333447
  21.8753722   7.0673084  74.9145269  20.9146597   6.0009956  75.3951311
  24.7320083  47.5388414  14.8819267  25.1074556  47.6510031  15.7552540
  25.4899648  47.4984915  14.2987454  80.5376244  75.2162886  87.5255299
  80.5758095  75.5444622  86.6271591  80.4160309  75.9998035  88.0617714
  83.7395672   0.2606279  31.5019524  83.8342098   1.1991769  31.6644776
  84.3878178  -0.1482886  32.0753491 106.3370324  34.4214057  70.1827431
 106.5965939  35.3041171  70.4467058 106.9247723  33.8433742  70.6692314
   6.9659235   6.0481643  48.9229059   6.6132929   5.3203582  48.4108639
   7.0872977   6.7524051  48.2860804  17.5966265  28.2641601  60.2718258
  18.2691767  27.5837802  60.2402210  16.7963221  27.8232669  59.9865961
 103.9908315  19.6693038  53.3890486 103.5732699  20.5260658  53.3006096
 104.8460437  19.7755145  52.9724407  81.8791294 100.0116730  88.7645340
  81.3488960 100.6206417  88.2504940  81.6437817  99.1467762  88.4286690
   0.6783917   1.1939620  76.9609785   1.2157538   0.6529903  77.5396156
   0.5002453   0.6332111  76.2059593  97.7738143  11.0745811  59.4108343
  97.4224521  10.2004527  59.5801687  98.1838418  11.3320064  60.2365685
  31.7939142  74.2220957   4.7589981  31.3559964  74.7532255   4.0938961
  32.5189021  73.8051588   4.2933952  70.1874542  86.3027382  78.1925201
  69.8878241  87.1777534  78.4390926  69.8965883  86.1963463  77.2868109
  90.0441360  81.9445324  86.8774986  89.9143982  82.3971081  86.0440826
  90.8634853  82.3023701  87.2193527  58.5408497 104.2259789  50.3735399
  58.3244658 103.3080578  50.5373383  57.8796768 104.7183990  50.8599663
  94.9383927  34.0344810  72.4120426  93.9977218  34.0455341  72.5888109
  95.1496936  33.1079578  72.2974300  19.1162493  22.3048973  69.4341373
  19.6433356  22.8464031  70.0216532  19.5810893  21.4689445  69.3973780
  73.9972925  97.1745205  90.0222111  73.0676842  96.9655800  90.1138401
  74.2034960  97.6948738  90.7987022 102.5598002   7.9035091  91.2879276
 102.8476144   8.6661147  90.7861042 103.3624459   7.5556564  91.6765022
 103.0528355  87.6928425  58.9050484 102.5464058  86.8971443  59.0682125
 103.3756161  87.9524708  59.7679710  60.4746199  92.6905918  67.1460056
  61.3216400  93.0955505  66.9594908  60.2747154  92.9560184  68.0436802
  46.0103944  91.1022360   2.0990956  45.1635602  91.2818129   2.5075829
  46.6137269  91.7152197   2.5191700 109.8062039  22.3231410  79.3787622
 110.3149081  22.0109367  78.6304474 110.4639436  22.5943088  80.0191307
  86.3733578 104.7351933  39.1736555  85.6651402 104.0934563  39.2270613
  87.1040154 104.3245697  39.6359992  97.5327778 102.2911453  62.2714233
  97.9823589 102.4712849  61.4457989  97.0979118 101.4504242  62.1288729
  46.2968972  37.3819811  23.3338654  46.3263753  38.3367521  23.2723534
  47.1352914  37.0927793  22.9737293  18.3968832  45.2594757  86.6545391
  18.1497004  46.1838245  86.6279697  18.6638834  45.0570869  85.7578850
  51.4332917  17.7448017  42.2074330  51.0114911  17.7973062  43.0650818
  51.2036279  18.5682136  41.7767632   7.0404437  22.9417323  91.4757633
   7.4315169  22.2332858  90.9644985   6.4340594  22.5010299  92.0710087
 100.4070617  24.3255805  55.9812117 100.8949090  23.5147571  56.1254644
  99.8687697  24.1472721  55.2100611  87.3426342  69.7867918  76.5808487
  88.0989647  70.3219557  76.8212509  87.0002174  69.4673252  77.4156666
  22.4377111  95.8780939  31.0074246  22.7232984  95.2607424  31.6808903
  22.4359515  96.7283136  31.4471352   1.8987323  84.2297363  57.7102613
   2.0075466  84.3634415  58.6518097   2.0075752  85.1015663  57.3303890
   3.4783699   2.3965263  73.4915686   3.3634236   2.4627971  74.4395304
   3.9689734   1.5842628  73.3659983   6.6675475   5.1867389  83.7282753
   6.5772250   6.1145210  83.9457512   6.2768748   4.7273540  84.4716167
 105.0329877  19.9269771  83.6487675 104.2254353  19.6277046  83.2310009
 104.7398282  20.3822708  84.4380665 105.2098800  15.2798652  76.8422461
 105.5728913  16.1654281  76.8575478 105.3684045  14.9714088  75.9500837
  15.9811022   1.5499114  64.7726059  16.8056586   1.8582248  65.1484632
  15.5582144   1.0695552  65.4843998  64.8444414  89.3718433  66.9814539
  64.3817186  89.5622253  66.1654425  65.3668404  88.5942554  66.7847586
 106.7730094  33.1333255  35.5972862 106.8169452  33.6715507  34.8069644
 105.8399344  32.9541587  35.7134867  81.7328739  88.9618492  90.5074596
  81.7844391  89.8744774  90.2233982  81.8317509  88.4543228  89.7019386
   7.7407172  19.3533897  76.3622952   7.9518607  18.4876537  76.7117977
   7.4055674  19.1812419  75.4823732   3.0772164  32.1200370  75.9416294
   2.4353507  31.5875434  75.4718542   3.5524514  32.5851535  75.2531099
  19.1667845  12.9586696  64.4010258  19.1931632  13.2435989  63.4875965
  18.8154890  12.0690250  64.3643618  79.9205923  93.9577961  90.5258179
  80.5349636  93.8051891  89.8078442  80.1465225  93.2957458  91.1791801
   1.4279225   9.6023082  42.1949720   0.9858706   8.9818191  42.7744722
   0.7410433   9.9077033  41.6023874  39.5400739  82.2777081  63.5816479
  39.9540353  82.4146175  64.4337749  39.9153900  82.9568386  63.0211544
  40.4092600  22.3870563  70.4866743  40.9368517  22.8495216  69.8355198
  40.5022051  22.9081821  71.2841845 112.4265719  23.8760375  63.7812090
 112.1459533  22.9848003  63.5734177 113.1783152  23.7610530  64.3624926
  21.7379858  19.0692424  64.8129463  21.6123869  20.0176811  64.7825861
  20.9511664  18.7371635  65.2452183  22.2015860  19.7167110  56.4361668
  22.0414069  20.0169086  57.3308516  21.3340094  19.6933269  56.0324478
 110.5871010  95.7228279  35.5334210 109.7781467  95.2128220  35.5749178
 111.1446476  95.2384567  34.9245191  30.3014853  13.1141853  84.5919228
  30.2537253  12.3206520  85.1250744  30.7776644  12.8463649  83.8059521
  88.5942126  35.3385353  84.3881512  87.9019833  35.3509139  85.0491333
  88.2184316  35.8010673  83.6390972  28.7806323  47.3528194  88.9440250
  29.4679644  47.9781341  88.7142563  28.2601740  47.2648525  88.1455135
  88.7424469  94.2208958  71.6010523  89.4085217  94.7692490  72.0156288
  88.4576130  94.7250271  70.8388567  40.9729293  73.7546617  11.6818440
  40.8968452  73.2411558  12.4860584  41.0453800  73.1010706  10.9862911
  72.5052404  90.1026630  89.5482159  72.7633142  89.2988873  89.9994087
  72.2387695  90.6963634  90.2501678  48.8965130  69.3834066  87.2568035
  49.0623045  68.5722542  86.7764091  48.0521584  69.6895218  86.9257641
  30.2719977   5.9352970  54.4056416  30.1990511   6.8605899  54.1716957
  30.7225707   5.5350303  53.6619997   6.6362383  33.4794616  78.6465216
   7.0619681  32.7773380  78.1545782   6.2919047  33.0489444  79.4290304
  55.3142455  18.7764835  77.1655226  55.4351428  17.8359985  77.0347357
  55.0924113  18.8628005  78.0926561  76.8880606  80.8830261  55.2012110
  77.4095774  81.4161968  54.6012259  76.8357277  80.0266457  54.7768164
 113.2678128  28.3616924  69.8633957 112.6824904  27.7075099  70.2450609
 113.0226184  28.3920097  68.9386320   9.3996813  15.8523464  72.0183802
   8.5497668  15.6200694  71.6443205   9.8487284  16.3249778  71.3175154
  40.3163433  22.8265691  55.9395790  39.3594599  22.8511286  55.9380198
  40.5422592  22.3443103  56.7349529   4.0784466  19.2404616  49.4365597
   4.8319399  18.8403392  49.0025282   4.4062746  19.4952321  50.2990246
   4.7847420  15.8069885  46.1608887   5.5993003  15.8597374  45.6609440
   4.9869373  16.2330425  46.9938517  59.0507793  19.1014612  52.3161459
  59.7150993  18.6448896  52.8323412  58.6823130  19.7480583  52.9181242
   3.4687513   3.1781721  56.0667753   3.1730843   4.0851304  56.1457634
   4.3609393   3.2458621  55.7266998  43.2175112  23.6822248  62.5732708
  42.8307056  24.2226982  61.8844318  43.9687634  24.1888690  62.8817606
 100.3939663  18.0982673  88.1637764  99.5212470  17.7726924  88.3842182
 100.4814385  17.9324269  87.2251225 107.1557567 106.7747562  62.0585442
 106.9295833 106.0668059  61.4553165 106.5788982 107.4963535  61.8080187
  22.4207639  94.4176674  20.3113675  22.2217702  95.3496850  20.2220559
  23.2843923  94.3176973  19.9108899   9.1349053   2.6456997  65.8391237
   8.7042266   3.0599102  65.0913429   9.2559463   3.3558801  66.4693832
  13.4659016   7.8368849  61.7039013  13.2330215   7.1851832  62.3651743
  14.3698668   8.0747861  61.9100142  86.4684675  98.9357991  69.1355705
  85.7826755  99.3754429  68.6329460  87.2864459  99.2779536  68.7749147
  32.0617820  70.2318521   8.0630219  31.5514714  69.4250186   7.9934895
  31.7027182  70.8017130   7.3828995  52.5954316  94.0095795  73.6634779
  51.9176171  93.6452890  73.0941868  52.5459764  93.4835756  74.4616652
  96.5365646  82.2954298  65.1776075  96.7007802  81.4194394  64.8284531
  97.3519776  82.5343276  65.6183577  48.3251286  15.8657300  66.3997889
  47.8865862  15.9004307  65.5496645  47.9522038  16.5972877  66.8917036
  29.6064305  22.4662900  69.1953850  29.7350073  21.5320921  69.0311432
  28.6891603  22.5390887  69.4590998   8.3344442  -0.0053979  63.5809803
   8.3051175   0.9455910  63.4761381   8.4494585  -0.3409410  62.6919270
   8.2936698  25.4919124  80.2411079   8.4665453  26.4172983  80.4143333
   7.9633790  25.4740071  79.3428802 105.5125186  76.1486650  73.6290836
 105.6822941  75.3988052  74.1992712 105.8017538  75.8613563  72.7630424
  99.6977006  18.5636902  67.7776051  99.0499590  19.2090786  68.0606890
 100.5339275  19.0270925  67.8246689  96.1739585  99.9373097  62.1199560
  96.3313530  98.9955438  62.1873140  95.9495280 100.0774426  61.2000513
  95.7058287  20.7941515   0.9833824  95.1327515  21.4673598   1.3502705
  96.4027453  21.2844856   0.5473625  32.2404408  10.7007456  90.1787567
  31.8990445  11.5890050  90.0754261  31.8913555  10.4063344  91.0200024
  79.4808389  49.6580900   0.2634918  79.2041255  49.0628953   0.9602081
  80.3218985  49.3081726  -0.0304497  29.6221685  10.3846359  45.8362389
  29.5553017  10.8629203  45.0097990  30.4048467  10.7409847  46.2565517
  88.4236381  84.4595218  66.5226650  89.1034958  84.4665027  65.8488846
  88.2585297  85.3843976  66.7059088  76.8309798  76.1879945  52.1072054
  76.3186274  76.9726754  51.9122648  77.6970226  76.3707686  51.7427969
  31.8154693   1.2915415  42.4541903  31.9763184   0.4138730  42.8006840
  32.5651312   1.8073671  42.7511072  43.1627882  49.2362477   9.9681580
  43.4001220  49.3013034  10.8931839  43.8148726  49.7710614   9.5154011
  51.5368260  26.7716653  18.4355938  51.4624441  26.9042451  17.4905502
  51.3624931  25.8388741  18.5610497  65.4040060  99.0149683  75.1108265
  64.6194158  98.9312816  74.5689344  65.6662581  98.1127078  75.2935314
  91.2604164  20.3332376  71.2817335  91.9108413  20.9697413  70.9850168
  90.4195188  20.7149172  71.0298538  18.0663061  34.4826269  42.9856968
  18.3575964  34.1470003  43.8334799  18.8136244  34.3443847  42.4037695
   4.0696165  17.7893281  28.1557822   4.4783521  16.9493890  28.3647585
   3.2730991  17.8066719  28.6863399  37.7016401  26.0755587  80.7958508
  37.1699929  26.7435217  80.3629494  37.1130061  25.3270864  80.8934593
  13.3646238  33.4168673  25.4356909  12.9806304  33.2008839  26.2854743
  12.6127720  33.5193777  24.8522162  67.8938112  96.5589321  35.4363394
  67.9034964  97.3426301  34.8868346  66.9725487  96.4396096  35.6671405
  20.6649494   6.3684434  52.8992319  21.5234995   6.7398846  52.6963711
  20.6175351   6.3828874  53.8551474  77.6881551  88.5629714  66.4874601
  76.9050773  89.0920127  66.6395712  77.3841260  87.6583517  66.5613651
  88.2821704  68.9747663   3.4102833  87.4487782  68.6939485   3.7882244
  88.5638047  68.2336063   2.8740036  66.6633631  26.7596991   0.8769238
  67.0663739  25.9483821   1.1860859  66.0830403  26.4836795   0.1675045
  23.6722231  14.9430823  48.3107185  23.0345535  15.1339316  48.9986038
  23.3076024  14.1880941  47.8488970  60.1115892 100.2858466  51.2823582
  60.2157698  99.4776047  50.7802391  59.4002650 100.0974924  51.8945456
 105.9705446  97.3065067  52.9025269 106.0774944  97.1160985  51.9705725
 105.9311888  98.2617754  52.9488373 111.8491242 104.3449534  77.3567295
 112.6529071 104.0217841  76.9496346 111.3713644 103.5534984  77.6048756
  22.0606637  20.0994062  53.5353756  21.9211650  20.1421571  54.4813919
  21.1966777  20.2651024  53.1581402   1.3821125   8.8054836  70.6288147
   1.0703687   7.9467732  70.9145832   1.7685495   8.6456394  69.7677994
  86.5552852  92.1327580  69.4690943  86.8253956  91.4141405  68.8973761
  86.3018451  91.7055572  70.2873230  31.1960220  83.9179707  61.1336517
  31.0991620  84.4660783  61.9123888  31.2773751  83.0277682  61.4759350
  27.8707051  13.1945169  82.4261856  27.3423529  13.1107068  83.2199383
  28.7178731  13.5155642  82.7351570  14.4884443  11.4130354  71.9557714
  14.4378340  12.2141039  71.4342737  15.0567234  11.6415966  72.6913309
 110.2563901  11.2031877  71.1906147 111.1399449  10.9016871  71.4019442
 109.6963824  10.4477596  71.3693619   6.5680455  89.0888119  72.1306276
   6.6867828  90.0277854  71.9875813   6.4228629  88.7296618  71.2553215
 104.6772668  93.8346673  72.8281593 104.2696974  94.4331575  72.2021198
 105.0057528  94.4035531  73.5243654  69.5076276  51.4467612   3.5095131
  69.1517616  51.9602649   4.2347061  70.2958060  51.0393110   3.8686669
 103.8686411   2.0476380  81.2908363 103.2376765   2.2583260  80.6025600
 103.7607114   1.1075475  81.4351082  41.5708780  23.5068178  68.1804943
  41.9227552  24.0758729  68.8650322  42.2060204  23.5693574  67.4671078
  89.4283677  66.9752712  28.3448994  89.6250535  66.8235679  29.2693054
  88.7730981  67.6729960  28.3508122  64.8066521  48.5495303  37.3252117
  65.4744674  47.9583926  36.9776356  65.3028727  49.2340500  37.7740204
  77.8722391  89.0431297  75.4589891  76.9833765  88.8852287  75.7771444
  78.3915383  89.1712595  76.2528038  91.0963044  72.8921676  76.0236979
  91.4380453  72.5669480  75.1908255  90.5778537  73.6609126  75.7860565
  34.5483796  68.9478345   2.5395119  33.6045934  69.0886946   2.4642956
  34.8751826  69.7388072   2.9682171 106.9793484  75.2562786  54.4032097
 107.5167582  75.2900005  53.6118269 106.8364165  74.3222309  54.5560408
  23.2338595  21.1985254  69.9297047  23.0795336  22.0897150  69.6163416
  22.4771762  20.7011414  69.6194315  19.0771842   0.6489659  63.5478926
  19.1402996   1.3284266  62.8766394  18.3449388   0.9244242  64.0994120
  36.7893887   1.9935046  40.8081341  37.5013781   2.5574139  40.5059576
  36.7750859   1.2695436  40.1821089   9.0619606  52.6431227  74.4160557
   9.9171710  52.6233006  74.8455334   8.5693145  53.3102608  74.8940277
   2.3570203  61.8550873  61.3315535   2.8472327  62.2860957  60.6314421
   2.8303813  61.0378409  61.4873314  56.2315464  33.6730289  87.3603058
  55.2931738  33.6814618  87.1715546  56.2964487  33.2901073  88.2351685
  33.6505384  76.2376339   4.9552071  32.9427312  75.6348903   4.7273075
  34.2499653  76.1958106   4.2101109  70.7686615   2.0981839  64.9480009
  70.0594902   1.8625869  65.5461645  71.5679979   1.8694623  65.4223204
 104.1903745  22.2782993  67.2408819 104.2699973  21.9340754  68.1304884
 105.0369041  22.6896882  67.0665884  65.9930465  96.2303126  89.9827194
  65.4134712  96.4044452  90.7243347  66.7907397  96.7204643  90.1818848
  72.3886562  87.5803525  10.7321465  72.7928210  87.5714428  11.5997898
  73.1166030  87.7360852  10.1304161  31.6583014  13.9817154  86.7076111
  31.2372065  13.9138401  85.8506966  32.5124335  13.5664308  86.5883160
  20.3321647  90.3110338  71.9008207  19.9179362  90.3459919  71.0385990
  19.7818040  89.7133434  72.4068880 108.0755589  90.7170773  51.6594982
 108.3408186  91.5440786  51.2570858 107.1193454  90.7258404  51.6169119
  49.6705438  81.0687788   3.4867680  50.1101876  81.1938651   2.6457607
  49.2925967  80.1911075   3.4312641  12.0658791  11.7682445  22.7739358
  11.3003469  11.5239656  23.2940507  12.3928487  10.9390652  22.4249625
  82.0183239 104.8217866  57.6935625  82.6726136 105.5203504  57.7056265
  81.4072464 105.0538730  58.3928156  95.0976751  88.7032950  50.1827097
  94.7309063  88.5648096  49.3094778  94.6660731  89.4962550  50.5007792
  25.4024458  13.2546544  47.0310259  25.3242683  13.9381218  47.6966000
  26.3087201  12.9546654  47.1010733  16.6221285  12.2755647  66.0266066
  16.3443410  13.0171061  65.4888535  16.0026383  12.2634256  66.7562056
  52.6801586  28.9200616  67.6470661  52.8901291  28.7376332  68.5629606
  53.5005093  29.2410803  67.2726297  19.0913022   5.2315372  30.4250073
  19.4989693   5.9892523  30.0055957  18.7716460   4.6981511  29.6973038
  51.7033470  85.7691081  16.0027229  51.7561794  84.9086435  15.5867397
  52.2447766  86.3348897  15.4522812  60.3901983  40.6479437  22.3947632
  60.9471012  40.9730370  23.1021511  59.8655392  41.4054389  22.1355927
 104.2822478 105.0157926  54.0747690 103.9463804 104.7838688  54.9405861
 105.2104232 105.1997200  54.2193031   4.5642060  15.7583034  71.0715485
   5.3961778  15.6608403  70.6083488   3.9665219  15.1638734  70.6180525
 108.8764144  91.7073233  12.8973305 108.0147744  91.4472396  13.2231629
 108.9895678  92.6050718  13.2095444  61.9872452  47.2479482   3.3409226
  62.3923398  47.8599079   2.7264034  61.1029244  47.5901194   3.4717953
   9.3838357  91.9772149  88.0775452   8.8979243  92.8017223  88.0599499
  10.3028440  92.2396327  88.0246925 107.1928833 102.3931310  74.8464727
 106.6397927 101.7109645  75.2272272 107.6643345 102.7634591  75.5926800
  51.7707396  23.6866975  80.1065254  50.8964300  24.0750408  80.0748730
  51.8985462  23.4591532  81.0274601  97.7753995  97.5028223  82.9202557
  97.4472401  97.1607990  82.0886517  97.1249793  98.1532425  83.1851006
  27.2855281  92.0173419  62.9668951  27.4459409  92.9360271  62.7512169
  27.2940158  91.9909335  63.9236927 112.3462913  98.8464529  54.7579098
 112.9614685  99.5227028  55.0415945 111.4937327  99.1537285  55.0660563
   4.0730011  59.2188740  84.4146824   3.4665042  58.7442207  84.9830914
   4.7942686  58.6065388  84.2695999  12.8992188  11.2406802  57.8783226
  12.1567845  10.6369305  57.9008818  13.6234879  10.7439983  58.2590771
  97.3582838 106.5343200  80.9280014  97.4021576 106.5494721  81.8840694
  97.0201919 105.6639054  80.7175159  16.3234437   4.7274551  46.5946341
  15.4443359   4.8614189  46.9488287  16.8685699   4.5604542  47.3635149
  56.3619662  65.2353437  20.1983368  56.0987306  65.1941640  19.2789662
  56.8965722  66.0270042  20.2591717 110.6400678  71.8505979  85.6585407
 111.0103056  72.3202038  86.4059544 110.5822036  72.5093961  84.9665356
  32.2983176  28.0426700  37.5446617  32.4169857  27.1497400  37.8684342
  32.3851622  28.5931451  38.3229077 105.8005606   4.0666500  42.4676561
 104.9793576   3.9200881  41.9982147 105.5625038   4.0023085  43.3925438
  33.6932755  53.8046980  60.0189352  34.0615129  54.6595764  60.2421331
  33.5219121  53.8558435  59.0785933  48.8480377  17.4393964  86.7038059
  48.5993004  17.6845753  87.5950146  49.0291643  18.2721674  86.2680054
  18.6694181   6.4929789  39.0718079  18.4608209   5.5597174  39.1135406
  18.6171639   6.7909235  39.9799562  63.6451436  55.4186329   1.8160069
  63.9906312  54.7205074   2.3723232  62.9913069  54.9859133   1.2669289
  26.3986826   2.3793541  67.4507999  25.5246449   2.3905785  67.8408813
  26.8746161   1.7145926  67.9486036  14.1497529  29.3972778  47.8498936
  13.6910951  29.6435976  47.0466566  14.6692097  30.1690078  48.0753565
  92.8312597 101.3827170  80.1032829  91.9676397 101.1808479  79.7432232
  92.8772364 100.8758128  80.9139347 112.1043672  16.9227839  84.8932266
 111.8648446  17.1096861  83.9855289 111.3929452  16.3721132  85.2201462
  19.9676609  15.8855963  88.2210445  19.5691061  16.7517316  88.1362247
  20.8907986  16.0633326  88.4012127  42.3177210  49.8324291  14.4256699
  42.6977760  49.8137633  15.3039848  42.8144199  50.5080448  13.9640724
 104.9800394  89.6912718  48.3352900 104.2588661  89.9665368  47.7692747
 104.9943039  88.7372876  48.2582140  36.1570168   1.4640105  83.1201172
  35.4654551   0.8106923  83.0145168  35.7569456   2.1525726  83.6512089
  44.0750360  23.4144950  56.2707663  43.6789036  22.7188683  55.7459641
  44.3449831  24.0731454  55.6308126  53.2683706  21.1550164  90.7948112
  53.2901955  20.8431149  91.6995049  54.1737366  21.0793185  90.4934597
  54.2950249  45.1590347  79.2607069  54.9975157  44.5248079  79.4038582
  54.6865845  45.8272648  78.6982250  61.9049215  44.6473122  22.9986596
  61.6790438  43.8541508  23.4845638  61.0760307  44.9406433  22.6203346
  60.4297924  20.9622908  45.5236769  60.8783913  20.1299620  45.6727409
  60.9107542  21.5929341  46.0595846  16.8450367  21.8989134  74.5081997
  16.6564870  22.3613119  75.3248215  16.1724710  22.2041464  73.8993311
  31.9808197  17.9596663  61.6558218  32.3414540  18.7712967  61.2988472
  32.3352480  17.2718680  61.0923100   5.5910933   1.0072728  67.9593277
   4.9667740   1.5220682  67.4480152   6.3497949   0.9104183  67.3838091
  14.4724309  27.0565343  56.0393143  13.8791823  26.3416505  56.2700319
  13.9609885  27.6116920  55.4507065  48.2481289  26.6428661  74.7889566
  48.6026192  25.8052063  74.4908094  48.1088638  27.1436977  73.9852142
  32.7906370   6.7659211  73.3261490  32.4711585   5.9117264  73.0354309
  33.7438655   6.6950291  73.2755184   1.7042153  15.0976622  44.0148497
   2.2528049  15.8600771  44.1992521   2.0058390  14.7863448  43.1614256
  70.2981449 102.9581387   5.1438820  70.8291245 103.0755551   5.9315979
  69.3995548 103.1119330   5.4356205  43.2880802  58.7172503   9.4165146
  43.5009206  59.0121241   8.5310852  43.3587695  57.7635748   9.3748295
 100.6816838  96.7141665  86.9746304  99.8482082  97.1843434  86.9526196
 100.4555652  95.8146477  86.7380524  41.1626673  39.3345952  67.4663258
  41.3744354  39.8470044  68.2465935  40.3304482  38.9109898  67.6765537
  93.0573369  58.8722355  10.9332382  92.5637246  59.2885025  10.2266228
  92.3883057  58.5746224  11.5497219   5.6754553  22.9550838  58.7748432
   5.4786122  23.4541297  59.5675802   6.6309023  22.9635525  58.7175560
  32.6220059   9.3461090  51.5696430  32.9895115   8.4701049  51.4522171
  32.8526545   9.8122990  50.7660866  75.5812431  71.7325945   5.8241188
  76.3300682  71.9538064   5.2704441  75.8101416  70.8870251   6.2099278
  79.9424062  93.1097961  59.8883963  79.8381055  93.9196539  59.3889141
  80.7862572  93.2074643  60.3295422   6.5435599 106.2448259  78.8556480
   6.4432143 106.3766757  79.7983980   5.7135390 106.5416902  78.4825945
  19.8318851  60.2979374  35.0630045  19.7417688  59.3641806  35.2532840
  19.2439973  60.4493952  34.3229508  53.6231375  23.4347630  54.7852421
  53.8477564  24.2466474  55.2397966  54.3957710  22.8796339  54.8906040
 112.4931152  43.4072351  74.6894693 111.6239278  43.7821150  74.8316336
 112.8271279  43.8630915  73.9168978  20.9578514  24.6991897  81.0227203
  20.4100513  24.3737197  80.3084278  20.3780389  24.7081137  81.7842770
  36.0612655  28.3776164  82.9839134  35.7388401  27.9624081  83.7838364
  35.4796124  28.0551600  82.2954845 110.6665809   4.6365774  88.2553196
 111.1198790   4.2167571  88.9864159 110.9864666   4.1765642  87.4792385
  41.6107512  21.6138840  58.0078936  42.0165014  21.8731856  58.8351536
  42.0254087  20.7794094  57.7889395  29.3255640  58.7417192   1.5716564
  29.5198686  59.3569465   0.8645737  29.2735715  59.2873813   2.3563778
  34.0915942  20.9033322  67.7456713  34.0118480  19.9682212  67.5574160
  33.3988905  21.3120556  67.2266960  90.9754467  42.9997540  85.9008884
  91.8841267  43.0893230  86.1881351  90.7304668  43.8762903  85.6044102
  28.2242584  37.0780921  59.0474510  28.9547753  36.8777537  59.6326351
  27.4511814  37.0501828  59.6111917  41.9997740  16.7618859  61.6478539
  41.8145132  17.0729434  62.5339460  42.5721121  17.4316895  61.2736559
   7.3067832  26.3928556  73.7758493   8.1746566  26.6072202  74.1180134
   7.2829270  26.8012500  72.9104710  57.3658443  77.1974094  14.5811283
  57.9599429  77.0571334  13.8438332  57.7968956  76.7693527  15.3208553
  26.2697314 101.7693002  60.2352476  25.5565118 101.1821676  60.4859018
  26.9247722 101.1948336  59.8388386  12.4557161  24.0734339  52.9951715
  12.9982793  23.3528829  52.6747608  11.6364396  23.9918017  52.5069571
  42.2197294  13.5072351  85.7440090  41.9105101  13.1755257  86.5869713
  42.2774601  14.4548583  85.8661079  44.5175791  10.8050716  75.8532572
  45.1276779  10.4666972  76.5086269  44.2426443  11.6546464  76.1980247
  26.8605018  35.3600121  91.6589546  26.9245601  36.3062572  91.5295410
  26.9021463  35.2447414  92.6082706  49.9527836  28.8884211  11.3266575
  49.6643066  29.1181993  10.4433596  50.7343435  28.3525634  11.1915624
  21.7892098  17.6575673  59.7922993  22.6194859  18.1269968  59.8729897
  21.4839625  17.5541484  60.6936121  88.7300811  98.1543607  57.5120497
  88.5894892  97.3073847  57.0888519  89.1532168  97.9394550  58.3433151
   5.8105290  46.8952751  79.1506672   6.2410462  46.0653639  78.9454079
   5.5510038  47.2474623  78.2992887  10.6264341  41.1845112  77.2438288
   9.7817969  41.0083246  77.6582861  11.2119627  40.5161953  77.5998306
  95.6160928  96.6309531   0.3575051  95.0320626  96.0934336  -0.1774872
  95.2192736  96.6217120   1.2285244  54.1204728  91.0114343  22.4983895
  54.4348098  91.7867215  22.9635250  54.8119319  90.8144982  21.8664562
  73.2684780  62.5613166  14.6100151  72.8806353  63.4203286  14.4429600
  73.6447383  62.3008103  13.7693035  43.5438187  69.7423680   0.5878555
  43.2979704  70.5017967   0.0595963  44.4329221  69.5305235   0.3035175
  41.3421488  23.7129188  77.3141193  40.5844498  23.6851358  77.8983736
  41.8874550  22.9776835  77.5939465  15.2418256  44.6139145  75.3435707
  14.7827160  44.6890497  74.5070267  14.7536814  45.1848936  75.9368086
  82.6976014  70.8775122  22.3299896  82.4094153  69.9747891  22.4651634
  82.1313525  71.2078066  21.6325009  21.9329476  19.9503553  42.4377155
  22.5177550  20.0963902  43.1812906  21.8103409  20.8191895  42.0551872
   3.3840582  10.1663589  47.5582552   3.0910832   9.8895335  46.6900587
   4.1549128  10.7081330  47.3894501  42.7090311  12.8321254  81.7769718
  42.8456688  13.7639344  81.9481277  42.8631926  12.4083924  82.6213169
  22.2812557  13.9070535  63.1925774  21.9066620  13.0486906  63.3903790
  22.1106553  14.4292295  63.9764500   0.9170078  81.1035419  60.0774813
   1.1147594  80.5894495  59.2946434   1.2578034  80.5781913  60.8014250
  10.3818320  87.6027275  69.1439295  10.2671813  88.1958259  68.4014177
   9.4910192  87.4108232  69.4369507  29.8914099  23.1276226  44.5924377
  30.3139901  23.4713793  45.3795147  29.2599964  23.8031793  44.3451118
  10.8002400  37.2824526  70.8643198  11.3760650  36.6138339  71.2352800
   9.9171340  36.9366407  70.9938192  15.7717370  92.3045195  54.9143219
  15.0878095  91.7658342  54.5164585  15.6801461  93.1584967  54.4917488
   4.1467427 100.3928900  71.3625145   4.1385984  99.4506133  71.1943483
   4.1780566 100.7911653  70.4926729 111.5638206 100.3356481  48.3443546
 111.3367603 100.6508107  47.4695110 110.7439063 100.3824294  48.8360691
  51.8027592  32.1202993  81.2254238  51.1556292  32.6657701  80.7783031
  51.7597628  31.2779737  80.7728004 100.4663823  94.2925823  67.7883148
 100.5124948  94.2317963  66.8341637 101.3056824  94.6747077  68.0448103
  24.6847892   7.3547280  61.0997581  25.5950332   7.0685589  61.0236168
  24.2544603   6.9932359  60.3249216  18.2262146  14.3832922  57.1599197
  17.5790083  15.0880909  57.1847200  19.0038013  14.7856641  56.7730284
  56.3407040  18.3421636  51.5690947  56.2113762  17.4194741  51.3496637
  57.2802496  18.4858823  51.4558172  56.1428118  35.5942297  51.1292791
  55.9987164  35.5640268  52.0750904  56.7438030  34.8698163  50.9553146
  39.2646813   5.5141264  56.0495043  38.4116173   5.8133978  56.3640690
  39.8970127   6.0630637  56.5132475  33.1379556 106.4106496  40.5066919
  32.5989246 105.6511158  40.7275581  33.9558601 106.2707959  40.9838724
  59.1118623  64.8587198   5.2227890  58.2659865  64.7727401   4.7830879
  59.1513754  65.7774420   5.4885304  49.4515991  36.0625887  20.6185365
  50.3597212  35.7621908  20.6547236  49.4341087  36.8401241  21.1765361
  76.9711257  64.7261400   4.0067684  76.8866373  65.2482147   3.2089436
  77.5930549  65.2134247   4.5471298 103.6935715  27.5399065  55.6070089
 104.1203032  28.0115771  56.3223124 103.3699559  28.2281208  55.0257492
  90.1167629  77.3605323  45.7330465  90.8141813  77.4675847  46.3798714
  89.3900487  76.9787551  46.2253523  28.9653325  28.8669896  76.4947033
  29.3715763  28.9337182  77.3588467  29.4876599  29.4456005  75.9391689
 109.5418236 104.1382099  75.4367256 109.1207192 104.9333829  75.7632303
 110.1719186 103.9038030  76.1180973  14.9565554  36.8647528  83.5400009
  14.3191743  36.6242552  82.8675842  15.6557763  37.3080778  83.0595970
  46.6836023  29.1506839  54.8897839  45.9175968  29.6321821  54.5773315
  46.3907909  28.7349725  55.7007599  41.2174129  25.8866620  45.5557871
  41.8035221  25.2696896  45.9940243  41.6964865  26.7153454  45.5585814
   6.4601153  32.5103951  68.2266903   6.6036165  33.2099843  68.8640404
   7.3402780  32.2194052  67.9882145  83.8795710  45.3846235   4.4264614
  84.0228272  44.4385011   4.4501984  84.5397712  45.7418002   5.0204289
  10.5515575  14.9610364  55.6851768  11.1815763  14.4020915  55.2303267
   9.6972716  14.6607935  55.3748846  14.4264340  12.3560214  41.0843182
  14.5115948  13.1497836  41.6124487  15.1510465  12.4043405  40.4607534
  23.7652040  14.8678887  43.0990028  24.6878099  15.1165259  43.1556797
  23.6735702  14.1444898  43.7191057  12.4759316   5.0679165  75.4949236
  13.0981684   4.4339958  75.8515692  12.4889898   4.9111846  74.5507336
  65.5039836   5.9469445   5.7765782  65.0701762   5.0950081   5.7291901
  65.7493020   6.1414559   4.8720276  36.2890601  20.0474858  91.6393089
  36.3383341  19.5032370  90.8534336  36.8869710  19.6287656  92.2585011
  73.5101812  87.7425767  80.1215839  72.7961025  88.0586720  79.5680428
  73.7074605  86.8694032  79.7826433  14.4967604  33.8259673  89.4092941
  14.6142626  33.3103681  88.6114311  14.3806624  34.7240615  89.0991688
  37.8226709  31.9743848  83.3111763  37.9822350  31.2064409  82.7625179
  38.6948323  32.3248219  83.4921837  35.9811258  14.2129159  74.6095371
  36.8314147  13.7986660  74.4624424  36.1125374  15.1263440  74.3553495
  56.9711781  27.5185657  37.0239997  56.6703367  26.9575047  37.7387953
  57.6637077  28.0522490  37.4136353 113.1646176  44.0067673  35.1340103
 112.2884589  43.9175844  34.7590113 113.2957602  43.1992769  35.6309986
   4.2685047  21.2584066  64.6505833   3.6162263  20.9160399  65.2617741
   5.0008094  21.5250087  65.2063608  79.4872046   8.5277683  32.7504969
  80.3050995   8.9873648  32.5606441  79.7065210   7.9358959  33.4700942
  55.1998568  71.7725844   6.6410935  55.2698935  71.6400225   5.6957066
  56.1040402  71.7469032   6.9541847  79.1805888  85.9845407  12.9235756
  79.6604253  85.8028848  13.7316525  78.4388829  86.5221794  13.2011521
 112.1384070 105.9829677  71.2138367 111.4104507 106.1725145  71.8057680
 112.4468610 105.1177084  71.4829350  29.3547344  57.3350620  54.7736073
  29.8026180  57.3278809  55.6195259  28.5227704  57.7755880  54.9468231
  14.8863685  25.1476455  38.2086730  15.3707945  24.4510221  37.7656388
  14.9464595  25.8960962  37.6150012  50.5330324  27.7678800  76.1435699
  49.9719000  27.1664715  75.6540108  50.3905630  28.6190557  75.7295227
  44.1820717  26.1232519  61.5851355  44.9166584  25.6106687  61.9225788
  44.4421864  26.3566351  60.6940079  74.7885753  61.4174927   9.4715511
  73.9803100  61.4000834   8.9590752  75.1297928  62.3035998   9.3506539
  16.0333276  26.8792844  47.8432655  15.4109192  27.5567174  48.1077003
  16.0064387  26.8896246  46.8865013  54.9721909   1.8604428  85.8153343
  55.4372406   2.6925004  85.9027481  55.6199789   1.1976883  86.0548306
  21.0357951  90.9476173  76.4492273  20.7110643  90.1012111  76.1420202
  21.9611453  90.9523225  76.2044001  52.9767752  14.9896252  52.8023529
  53.9102840  15.0883234  52.6151228  52.5625753  14.9491894  51.9403601
  56.1866999  23.2755947  73.1026793  56.3404179  22.6355147  73.7975883
  57.0593834  23.5963964  72.8752136  11.4602911  30.3771949  49.9453259
  12.2270513  29.9401546  49.5747709  10.9441197  29.6692777  50.3308821
  39.5660138  40.7262182  27.0501542  39.3562627  41.3081598  26.3196874
  40.2561045  41.1838007  27.5303936  22.3747349  35.5372143  77.5703478
  22.1152520  35.1887059  76.7174482  23.3301330  35.5805802  77.5307655
 108.0557595  36.6855669  85.2270889 107.9027717  35.8773780  84.7375393
 108.4202056  37.2912169  84.5816422  37.1995330  18.1578434  60.3249168
  37.8836775  18.4033036  60.9477568  36.4573288  17.9024124  60.8727455
  15.1600480  13.6314642  70.5538321  14.5024991  14.2651582  70.2669621
  15.4211473  13.1778145  69.7524214  62.9767392  97.9270226  63.2279778
  62.4436662  97.1420247  63.1021118  63.6402199  97.8788782  62.5397158
  57.1201051  73.6894472  15.5010044  56.6704095  74.1299255  14.7799122
  56.4605094  73.1036003  15.8724224   3.4044901  24.2746162  52.6640701
   4.1487694  24.1890478  53.2598495   3.1774178  23.3737659  52.4335480
  96.4582334  35.6015253  70.9718704  97.1753751  35.0571442  70.6469250
  95.8864842  34.9913788  71.4377642  25.2108908   5.5982000  63.8605261
  26.0256505   6.0298836  64.1175318  25.2480030   4.7425655  64.2880106
  15.3959215   6.8486917  72.8521919  16.0372198   6.6249734  72.1777153
  15.6603909   6.3336086  73.6144114  16.9252586 104.4256062  73.4628963
  16.5627669 105.2866982  73.2546902  16.4165830 104.1275594  74.2169857
  14.3983185  31.1542392  76.7689323  13.5539734  31.3283587  77.1848631
  14.5975935  30.2474523  77.0018721   7.9117297  97.1860457  54.1972208
   7.1644735  97.7842361  54.1999674   8.2459926  97.2162343  55.0936556
  14.1046476 103.4212638  52.1043539  14.0186738 103.1629742  51.1866808
  14.9076318 102.9920921  52.3997498  51.3738537  18.4197450  68.7850618
  50.4551220  18.1756997  68.8973665  51.3616657  19.0911460  68.1029272
   3.2475030  53.9536238  82.1613598   4.2018601  53.9067936  82.1044254
   2.9977542  53.1680393  82.6478958   8.6414587  36.6170549  56.4672804
   9.0258265  36.8533635  55.6230927   9.3608767  36.7085290  57.0920229
  90.5833743 106.1979412  66.0446835  91.1016259 106.0523204  66.8361616
  89.6944950 105.9409167  66.2897587  63.6272908  71.2684793  12.8090012
  64.3088795  71.9306071  12.9241478  63.7157274  70.6983764  13.5728085
  83.8331333  93.6357952  63.6565971  83.7234680  94.3748105  64.2549801
  83.9634368  92.8805614  64.2300749  64.1303406  97.9842681  80.3903770
  63.2019827  98.1885654  80.2779102  64.5520446  98.3504284  79.6129942
   7.3225707  53.8276339  69.3791199   7.5175697  54.0399361  68.4663582
   7.1103060  54.6701002  69.7808981   5.3004216  97.3120654  57.9592133
   6.0684203  96.8302924  58.2663012   5.0792455  96.9022906  57.1229124
  26.2290025  47.9261780  43.5611916  26.4387250  47.7226210  42.6496983
  27.0400381  47.7510023  44.0384436  24.8161340   2.8173092  58.2790756
  23.8955474   2.8526255  58.0192614  24.8358560   3.2214573  59.1465473
  63.1044865  21.0467005  86.5521717  62.5233459  20.3760409  86.9109535
  62.6072407  21.8609238  86.6297626 109.0916683  27.1022320  49.5619202
 109.6144117  27.6799130  50.1180267 108.3064063  27.6107883  49.3595219
 101.3347194  88.8646687  48.9302015 102.0583866  88.6717642  48.3341074
 101.7050765  89.4764305  49.5664501  55.4805040  32.0873475  50.2585077
  56.3441420  32.4959683  50.2002716  54.9340963  32.5957227  49.6591568
  69.6860791  84.4097621   2.6412594  69.7604228  85.3286726   2.8987610
  69.9169279  83.9203389   3.4308254   4.9222848  14.0716672  85.4859734
   5.5088699  13.3856523  85.1673317   4.5255330  14.4344616  84.6940136
  33.0485702  21.7413259  82.6629353  32.9576278  22.6941752  82.6693535
  32.4597025  21.4492035  81.9671440  45.0347853  36.7214704  67.5644684
  45.2673292  37.4401188  68.1524277  44.1343212  36.9100404  67.3002005
 110.7520983 101.8781916  53.6700058 111.5651581 101.4842052  53.3538723
 110.2862713 101.1579228  54.0947962   9.7660065  25.1310277  89.2822075
  10.0757265  26.0022807  89.0347767   8.8131607  25.2160120  89.3153000
  33.0046964  46.8377542  63.2033682  32.9147506  47.7240515  63.5535431
  33.7657237  46.4766884  63.6580086  32.7330112  21.4782858  25.3221107
  33.1009912  21.9291019  26.0821033  32.2457266  20.7425189  25.6928349
   3.2645163   3.7890798  82.7120018   2.3849969   3.9766449  82.3841286
   3.7356642   3.4475541  81.9519901  55.8812904  46.4491510  75.4744530
  56.6947889  46.7408800  75.0629377  55.8673954  45.5025530  75.3330374
  46.8626881  36.2936616  65.3470612  46.2365818  36.7645001  64.7970295
  46.4576626  36.2812066  66.2142611  51.6680241  16.7432928  27.9709792
  52.4479342  16.4430308  28.4376812  51.0159063  16.8808842  28.6580324
  42.3986864   2.0404454  53.1484938  43.0296755   2.4350262  52.5465059
  42.8754950   1.9567586  53.9742565  23.9696097  66.9851732  65.7360792
  23.6686659  66.2461948  66.2648249  24.2187619  66.5946198  64.8984480
  41.4166451  63.0798340  54.6534920  41.4251709  63.1954956  53.7033415
  41.5534782  63.9602995  55.0031853  70.6436826  62.8056039  12.5228321
  71.2971688  62.9608746  11.8408692  70.5881644  63.6364098  12.9949677
 104.1617467   1.9122345   7.0240128 104.9701883   2.1963865   6.5975010
 103.4644939   2.2197563   6.4447891  49.9176836   3.1623882  65.9620237
  50.4453135   2.9937282  66.7426586  50.0477362   4.0933865  65.7815790
  14.8218417  15.7982481  44.8035097  14.7624815  16.7417932  44.6537447
  15.6359947  15.5380893  44.3725777  14.2341292  14.0956831  87.5130558
  13.9287090  13.2193935  87.2783947  14.8352277  13.9520621  88.2439995
  72.5708938  98.3535845  15.5369007  72.0876146  98.9110119  16.1467755
  72.0936776  98.4322960  14.7108853  27.5719833  13.2333457  56.2316465
  26.7068982  12.8731537  56.0363960  27.8202152  13.7047291  55.4364061
 104.2268179 105.7684912  20.1782227 104.6988413 106.5920428  20.0549793
 104.6870754 105.3337440  20.8961272  43.5535611  64.8053164  19.7054588
  43.3097947  64.6139927  20.6111061  43.0743516  65.6060894  19.4924938
  15.0694442  38.9601135  23.3275604  15.7909608  38.8929152  22.7021551
  14.4660532  38.2619977  23.0730319  53.5365725  17.0444226  91.7992210
  53.6437464  16.8783343  90.8626556  52.6319551  17.3446620  91.8872547
 102.0465682  94.5014620  48.4339952 101.0961077  94.4211639  48.5140514
 102.1797726  95.3408182  47.9935741 112.0002291  67.9672504  51.7262125
 112.3140285  67.5741721  52.5406170 111.8304727  67.2217703  51.1503029
  23.6118770  36.9789314  44.6311235  23.0064201  37.1251202  43.9042950
  23.9001966  37.8562808  44.8828459  22.4187469  38.1558180  76.3228607
  22.4188972  37.6113224  77.1101093  21.6915154  37.8195000  75.7991695
  24.7310233  13.8491559  72.6994324  25.5060959  13.8740349  72.1382952
  24.1987157  13.1388128  72.3412561  21.7007041  45.9396935  32.2795916
  22.6284504  46.1417484  32.1583796  21.2861609  46.2186813  31.4631653
  83.5408592  17.9815280  65.8198929  84.2831326  17.3782766  65.8566284
  83.8774586  18.7474144  65.3547573  60.6141138  29.8226452  79.8633003
  60.0795794  30.5622435  80.1522636  61.5157175  30.1356506  79.9365902
  26.9901371  25.7386065  86.7196846  26.5723991  26.2014914  87.4459553
  26.4600992  25.9643531  85.9552670  91.5488387  88.2188494  15.7987892
  91.9630767  87.5331004  16.3226044  90.7982970  88.4996779  16.3222897
  12.6470851  77.7122975  37.9291487  12.6058864  76.8325711  37.5541639
  12.8734206  77.5705004  38.8483310  95.9444714  72.4925942   0.5329144
  96.3403321  71.7862470   0.0224316  96.3505364  73.2901270   0.1933777
  46.4721251  48.7597704  63.7849283  45.9883928  49.4798374  63.3802891
  47.1368170  49.1901207  64.3227100  48.9272976  14.4734633  80.8959484
  49.3442917  13.7045074  81.2846088  47.9924059  14.3461215  81.0571766
  17.5463437  97.8786260  77.5993490  17.7940749  97.4706841  76.7696238
  18.2046079  98.5597134  77.7373362  67.0308376  90.6410916   1.8791306
  67.3453189  89.9045284   2.4033558  66.1246682  90.7660849   2.1610272
 107.6768140  17.1925378  62.1949816 107.6954149  17.0647848  61.2465239
 106.7704283  17.4334228  62.3864794   0.6706785 103.7002084  67.3219156
   0.6328534 104.5853505  67.6843023   1.5981602 103.4662402  67.3575592
   1.1116528 103.9823610  55.5953312   0.9780358 103.1298617  56.0096073
   0.2321266 104.2704270  55.3510380  41.9170761  13.0504501  42.1459293
  42.1944237  12.1907961  41.8292189  41.7714739  13.5631001  41.3508034
  25.3616238  19.6332610  58.0012608  25.3217673  18.9126217  58.6300087
  24.5862818  19.5154464  57.4524450  38.1500053  32.8933930  74.1633511
  37.5813675  33.6228323  73.9167786  39.0217209  33.1599140  73.8712692
  71.8575908  77.2946627  12.4169552  72.4838377  77.9985888  12.5858700
  71.0056878  77.6758654  12.6295101   3.4067392 101.4211727  59.9547338
   3.3087062 101.5608818  60.8965921   3.4617948 100.4704589  59.8580742
  24.1534567  32.7700901  83.1733131  24.4609904  32.9832935  82.2922897
  23.2018566  32.7125359  83.0874348  35.7199194  63.0195822   0.9813320
  35.5325247  63.3377500   1.8644440  36.5386287  63.4525366   0.7394707
   8.0440927  29.8479915  55.0146961   8.0064744  29.2829990  54.2429447
   7.7699238  30.7078052  54.6956635 101.4756749 101.3840712  74.7955942
 101.2589476 101.6992593  75.6730461 100.6387875 101.3743514  74.3310976
  23.5565710  22.7429390  42.8106689  23.9722157  21.8816733  42.8517914
  23.0675888  22.8122973  43.6306190  74.7858334  17.2794616  54.6499634
  74.4100761  16.5418196  55.1305056  74.4985533  17.1479702  53.7464046
  77.7247103  96.6689921  75.2280569  77.6116841  96.8458212  76.1619663
  77.2336227  95.8615578  75.0760174  14.0951741   4.3158382  66.2401295
  13.8585746   3.6339551  65.6114101  13.4970856   4.1816944  66.9753361
  49.8407030  11.4251387  22.5944304  49.5309353  12.1407127  22.0392466
  49.0910101  10.8340645  22.6638436 109.1548870  96.3046313  28.1256771
 108.3556030  96.8231166  28.0332065 109.3439052  95.9958101  27.2395992
  41.8602324   2.2311918  28.3117223  41.2858820   2.9389274  28.0193853
  42.0854521   2.4622634  29.2128968 110.7452775  52.5547080  14.4733154
 111.3095618  52.3117123  15.2073204 111.2458945  53.2155595  13.9948952
  40.5728722  46.5358782  49.9512911  41.0076714  47.3771286  50.0908327
  39.6670055  46.7658472  49.7445202  54.6722507  21.1916804  46.6630411
  53.7614393  21.2345457  46.9542694  55.0852346  20.5671024  47.2593451
  22.9954457  38.0168653  47.5786161  22.3340392  37.3547864  47.7796793
  22.6113820  38.5311723  46.8685341  10.4783583   5.4399401  91.6418839
  10.7352996   5.8755010  90.8291721   9.7718519   5.9828800  91.9915867
  50.7435680  63.2992108   7.9127514  50.8842493  63.0933769   8.8369095
  50.1598383  62.6082320   7.5996411  26.0835671  18.2339752  79.0213060
  26.7125297  17.7675891  79.5718718  25.6505132  17.5456023  78.5164881
  31.9529700  57.0904779  53.3762836  31.5396929  57.6775789  52.7432394
  31.3083577  57.0033979  54.0785122 111.6569985  15.5271375  48.1223392
 111.6403739  15.6040871  47.1683836 112.4395979  15.0078905  48.3071423
 109.1924430  34.3231082  75.9823942 109.0718697  35.2568078  75.8094788
 109.6411847  34.2919898  76.8273163 105.8201621 104.9282763  57.7941608
 104.9299834 104.5818194  57.8556824 106.3274429 104.3953288  58.4064245
  12.9998469  51.0840225  90.9929276  12.7324653  51.6172028  90.2442932
  12.4385548  50.3099442  90.9483337  34.0750480  23.9005709  68.5556030
  34.3151689  24.0411353  69.4714737  33.7115312  23.0152893  68.5364628
  64.7080183  29.2775702  82.4222565  65.2711821  28.8948250  83.0949974
  65.0992680  30.1319408  82.2400284  27.5034356  22.2918415  79.7763538
  27.0392179  22.5669646  80.5669498  26.9124436  22.5217485  79.0593481
  31.9526029  21.8413472  66.2374067  31.0764742  21.5167665  66.0293722
  31.9996190  22.6957345  65.8084059  18.7896967  24.2282557  91.4722633
  18.9109886  24.1905165  92.4209976  18.0077291  24.7670484  91.3520241
  29.1626143  34.0477276  61.1608362  29.6720266  34.7586703  60.7718754
  29.5202112  33.9519572  62.0435476  35.8340526  44.3326616  89.6709061
  36.0419607  44.2089367  88.7447929  34.9398994  44.6743011  89.6720886
  50.8900404  41.9848728  75.2666998  51.8175077  42.2011328  75.1704693
  50.4319000  42.8018904  75.0696611  52.0633221  30.8927178  62.7831888
  51.8690586  30.4190946  61.9743776  51.2613297  31.3789463  62.9745436
  23.1762075  93.5308946  52.2334194  24.1081285  93.7277938  52.3282051
  22.7529287  94.0355588  52.9279566  53.1306410  36.0506439  68.5527134
  53.0768061  36.3818550  67.6562548  53.5137510  36.7719197  69.0519333
  43.8501310 101.1059684  19.4639552  43.6975621 101.5840167  18.6488342
  43.5784673 101.7132122  20.1521993  50.5623007   9.1181105  72.0888376
  51.4801741   9.1943955  71.8282175  50.2671289  10.0226045  72.1936989
  93.9373685  64.8407061  24.1983998  93.2086373  65.4564435  24.1206467
  94.7141791  65.3622098  23.9963257   2.7975749  88.7549377  86.9139481
   3.0652808  87.9480136  86.4741325   2.2204303  88.4629799  87.6195621
  34.6313691  46.4378786  56.0306501  35.4222417  45.9037542  56.1045551
  34.8993230  47.1910048  55.5041170   2.6559356   1.8402702   2.2666084
   2.3166183   0.9994060   1.9599449   2.8629497   2.3215467   1.4655125
  35.9831882  17.0640957  52.8036976  35.7682300  16.4690661  53.5220051
  36.4756584  16.5246642  52.1850538  56.9926929  27.2737861  76.9412613
  56.8812561  26.4179897  76.5272236  57.9394770  27.3675704  77.0463133
  40.1473188   9.4962692  77.0029783  39.5999765   8.8921046  76.5013504
  40.9862709   9.4983345  76.5421200  31.4683414  12.8809667  45.2595472
  32.2804213  13.2441592  44.9062014  30.8696342  12.8620422  44.5129395
  41.0796738  33.9332676  47.4120235  41.3118649  34.3312216  48.2510424
  40.6136131  33.1312346  47.6481676  38.2513905  39.4944239  62.9875660
  37.3811340  39.8840117  62.9032612  38.1361580  38.7854552  63.6202717
  68.5789085  87.3003776   0.7699215  68.4234167  87.3944075   1.7097199
  68.0682183  86.5308292   0.5184853  13.7949133  17.6988149  71.3920927
  14.1470385  18.5885477  71.4169121  13.7587941  17.4298298  72.3100090
  48.4631824  40.9657097  67.4372721  48.9101219  41.7778301  67.1986485
  48.9359570  40.6494284  68.2071257  69.0300275  79.6222265   2.7660191
  68.6174513  79.6001060   1.9025814  68.5305477  80.2773531   3.2534134
  50.5456210  86.3740761   4.7877800  50.4386903  85.4285224   4.6842205
  50.5407334  86.5133722   5.7347786  46.4751196  35.1767850  74.9966764
  47.2219419  35.0028419  74.4237614  46.8677092  35.4050827  75.8392859
  55.9652424  30.9720731  84.8548317  56.0393047  31.2795687  85.7582664
  56.7474222  30.4373169  84.7189617  42.5052738  27.2083545  63.9165258
  41.6799974  27.3710108  63.4596968  43.0855083  26.8525720  63.2434893
  31.0204148  33.0425143  72.9146528  30.8110738  32.5948000  72.0949221
  31.9334817  33.3116603  72.8141546  51.8458271  32.9381251  52.8609991
  51.7976809  33.4718418  52.0678663  52.7598524  32.6574159  52.9056740
  48.2506800  39.7788477  78.7614918  48.0284643  39.1762900  78.0517197
  47.8517199  40.6099272  78.5038614  51.9802094  14.6851540  46.7975664
  51.9335175  15.0705934  47.6724911  51.1962080  14.1396880  46.7339945
  57.9121877  85.9518893   7.9598152  57.7087820  86.8850310   7.8957760
  57.6458860  85.7090075   8.8465607  32.2134614  18.7092328  87.5517082
  31.6391873  18.4696984  86.8243408  32.9191542  18.0631864  87.5224876
   8.3864831 106.3999696  33.6724234   9.2012881 106.0339836  33.3283615
   8.6422586 107.2421542  34.0486360  29.3744230  25.4280829  75.5455399
  28.6825061  24.9587560  76.0116005  28.9096069  26.0759354  75.0159502
  33.5827136  15.5204332  38.0050302  33.8640141  16.3147366  38.4591007
  32.7491879  15.7589173  37.5993276  46.2428713  35.7731819  53.8148785
  45.6863737  36.4616966  54.1788673  46.0851955  35.0151920  54.3777466
   2.6127097  45.4479885  59.1557312   2.7786714  45.3737116  60.0955009
   2.7842867  46.3678598  58.9541769  91.3781929  14.8082626  87.3868084
  92.2214508  15.2190042  87.5776958  90.9704399  15.3867400  86.7423439
  58.6672735  27.6520944  72.2264481  58.0399752  27.8937936  72.9078531
  59.1452265  26.9085312  72.5937414  23.2030296  40.5206251  65.4805660
  22.3048568  40.2166080  65.3498268  23.3850813  41.0659933  64.7152805
  47.2796583  44.2761135  79.8865843  47.8042603  43.8768816  80.5805874
  46.6993618  44.8841143  80.3446484  32.6091242  49.8644781  53.0824947
  31.6917706  50.0664854  53.2665777  33.0988812  50.5727768  53.5004473
  65.0002671  63.6293371  10.8669674  65.4973245  64.0957351  11.5390122
  65.5535746  63.6718996  10.0870526  72.9066992  46.6967678  83.3185577
  73.5750628  47.0448351  83.9087868  72.5673485  47.4658966  82.8608322
  28.8120985  31.8197846  77.8842211  27.8873730  31.8906903  77.6473951
  29.2515802  31.5866446  77.0664597  32.7612734  35.3262901  59.7586250
  32.8606629  35.8750391  58.9806604  33.2804513  34.5449209  59.5684958
  71.8934251  95.0024683   0.9414303  71.3989259  94.2802985   0.5539047
  72.6641942  95.0928338   0.3810894 102.2010543   2.7378637  16.2738239
 102.6253082   3.5553438  16.0131275 102.7414967   2.0519287  15.8818543
  29.0408063  29.5830989  58.2771111  28.7388682  29.7942567  57.3936653
  29.1439152  30.4333115  58.7045956  43.8099289  27.8905249  76.0972786
  43.0591869  27.4352598  76.4785290  43.5137510  28.1525159  75.2255726
  43.4863424  34.3642330  46.0046864  43.9747477  34.9438357  46.5892839
  42.9647875  33.8164663  46.5913391  27.6050782  33.8521719  69.8932314
  28.1540966  34.5380449  70.2732086  28.2172632  33.2926226  69.4153547
  38.6862854 100.7496388   4.8404133  39.5796219 100.6459029   4.5126640
  38.4921908 101.6787655   4.7167885  59.4623327  21.5128016  43.0179405
  59.6219158  21.2198567  43.9151287  59.6738720  20.7523417  42.4764776
  39.6078587  15.3526032  86.2265778  40.3413773  15.9389877  86.0412788
  38.9992785  15.4937482  85.5013561  10.5517018  46.0523605  59.4527102
  10.2428460  45.1677418  59.6483803   9.7557664  46.5833712  59.4253683
  27.0777798  30.3244567  73.0587769  26.4702058  30.8117747  72.5023556
  27.9250240  30.4115391  72.6219416  61.0041904  19.2678607  89.2749977
  60.3980255  18.5365117  89.3930149  60.5970764  19.9948025  89.7462177
  15.4193103  58.1850576  55.5428553  15.1433170  58.2098246  54.6266413
  15.3241229  57.2671223  55.7969427  31.5375805  43.1685781  66.4314175
  30.9632039  43.1995344  67.1965075  31.1189246  42.5404167  65.8428812
  33.3287883  42.4438286  80.5073643  33.9747906  42.7771997  79.8846531
  32.5133038  42.4032021  80.0078011  14.1733170  21.7581916  51.5926647
  14.0954423  20.8787584  51.9624805  14.4349968  21.6133451  50.6833935
  44.0585232  35.9661579  51.1661768  44.6101856  35.7635617  51.9217253
  44.5671892  36.6008425  50.6615305  27.7568483  33.5575294  66.8365383
  26.9015026  33.7358689  66.4456272  28.1217265  34.4233108  67.0196152
  43.2181311  34.6585560  38.1242108  43.2720184  35.5109882  38.5562849
  42.6504660  34.8086596  37.3682618  30.2300668  31.2584662  47.3574591
  29.8220491  32.0701694  47.0559788  30.1578736  31.2939930  48.3112717
  42.9055119  52.6667738  63.3157969  43.4502316  53.2765770  62.8181458
  42.1681213  53.1966543  63.6186409  72.2520399  76.3149023  82.2334480
  71.9730949  75.8003378  81.4760590  71.5689182  76.1678600  82.8876305
  52.0057583  42.3148537  86.5435886  51.3480043  42.1364212  85.8714581
  52.3777533  41.4570045  86.7483807  39.7043443  18.4915841  62.2529793
  40.0015163  17.9573846  62.9895592  40.2605200  18.2222211  61.5219879
  64.2271042   4.5942849  39.5101047  63.3635330   4.2027298  39.6410942
  64.2587519   5.3189462  40.1346827  95.8418179  84.8069246   0.9717095
  95.7395268  84.3012698   1.7779839  95.2486516  84.3870122   0.3487599
  86.6390131 106.4054807  85.7117176  86.3700244 105.6582431  85.1773834
  87.5921426 106.3331315  85.7621384  27.9063892  29.5050287  55.8841848
  27.1055460  28.9808083  55.8928442  27.6380038  30.3462648  55.5146980
  36.7889929   1.8392390  80.3765678  37.7027750   2.0804648  80.2247715
  36.7394257   1.6684878  81.3171101  35.4451013  51.4112949  57.9665232
  36.2408924  51.8968153  57.7492237  35.2725172  51.6316557  58.8818884
  46.9791937  56.2462378  63.4026098  47.8983307  56.4650726  63.2492208
  46.5351009  57.0931530  63.4444284  48.8168430  17.3153448  39.8208094
  49.5018864  17.7089667  40.3611851  48.8159943  17.8365552  39.0179586
  50.8399487  31.9346952  38.8916731  51.6676474  31.4837623  38.7249160
  50.2128124  31.5078497  38.3079505  20.7949495  96.9356633  81.6802692
  20.3717136  97.7902854  81.5982723  21.5571212  97.0981837  82.2360611
 101.1992393  56.4908075  45.0085354 100.3327607  56.4688206  44.6023798
 101.8044268  56.2983608  44.2923307  70.0817419  88.7605793   5.6286251
  70.0843931  88.1440480   6.3608181  70.5782438  89.5140011   5.9481156
  21.8323851  26.0791540  63.8676071  21.9653440  26.7011929  63.1523323
  21.6096449  26.6251826  64.6215773  43.1702757  33.1562877  91.7706585
  42.9853821  32.2180486  91.7287350  44.0342999  33.2121348  92.1787930
  32.1302891  23.6439133  18.0466390  32.6302814  23.2077813  17.3566902
  31.3465357  23.1045771  18.1518817  28.2444381  92.4163092  77.0649767
  28.6872100  92.5957847  77.8944206  28.8992499  92.6156974  76.3958788
  31.2478137   6.0804129  80.2981472  30.6768131   5.8636415  79.5611286
  31.4581037   5.2350831  80.6949234  69.6358585  25.4895163  75.4548693
  68.7279940  25.6913829  75.6812859  69.5774698  25.0319076  74.6161699
  36.7915487   9.6536440  55.6892443  37.7252388   9.7427005  55.8803511
  36.4003825   9.3918324  56.5227175  41.7264366  35.7476640  53.0960608
  42.0500422  36.2647891  53.8336849  42.0620775  36.1990309  52.3215628
  42.1232653  57.9491329  58.5584974  42.4767303  58.8017750  58.3049250
  41.1971664  58.1162357  58.7335777  41.7105579  53.6053514  78.2813692
  42.0086908  53.6444330  77.3726225  42.4260759  53.1755447  78.7499046
 100.5424357  90.0240047   7.5739586 101.2472678  90.0651414   6.9276249
  99.8006583  89.6529467   7.0961487  21.7565250  84.2868305  71.8413210
  21.0634898  84.1235972  72.4810791  21.6418695  85.2040649  71.5927935
  52.5780439  28.6183143  78.1246042  52.0120668  28.0051613  77.6556158
  53.4567356  28.4357166  77.7917624  93.1767608 105.3451235   3.0966866
  93.9849759 105.4319508   2.5912392  92.5236417 105.0611432   2.4571430
  34.3102360  79.5680428  49.8779583  35.1293349  79.8724365  50.2686596
  34.4368887  79.6829081  48.9361525  36.5850520  28.9114261  52.3051500
  37.3125720  28.3476353  52.0423031  36.6409349  28.9449549  53.2601261
  17.2827649   3.8486636  52.5203896  18.1878185   3.6190766  52.7310991
  17.1305418   3.4575924  51.6600847  81.7535735  84.0505679  26.3299763
  81.1948586  84.8124082  26.4838326  82.2064305  84.2473538  25.5099594
 103.3713327  46.8733692  73.0461836 104.0027766  47.5871038  72.9562140
 103.2896791  46.5130806  72.1631479  21.8577170  12.8555477  47.4455833
  21.9425964  12.2716022  48.1992674  20.9664178  13.1989706  47.5078535
  39.2057800  54.7837925  77.9035378  39.1701579  55.2238750  77.0542526
  40.1226234  54.5269918  78.0019617  36.5904975  54.0105915  54.8756313
  36.7492962  53.9578915  53.9331675  35.8715248  54.6364689  54.9627495
  49.3136215  21.8086910  63.0915308  48.7689114  22.5028706  63.4625340
  49.0752602  21.7867112  62.1647453  34.4832287  85.6133492   6.4583409
  35.1285533  85.9605820   5.8425343  34.4071902  84.6872122   6.2287342
  42.7321768  45.4998064  76.8293762  42.7484179  44.6714544  76.3499975
  42.4025106  45.2677011  77.6975250  45.6717396  18.6117327  48.5808086
  45.7959461  17.8970706  49.2053556  45.4116440  19.3585849  49.1200638
  90.5822421  81.5191586  14.4133866  89.8877478  81.5832813  13.7577927
  90.5380011  82.3475201  14.8909771  50.8499623 100.2346833  25.8725559
  50.2998126 100.8256419  25.3584301  50.7031310  99.3722041  25.4842293
  12.5250542  30.2778959  63.5059118  11.9583714  30.9769988  63.1797886
  13.4122467  30.5744267  63.3029556  35.7827473  35.4181004  62.3640680
  34.8267198  35.4614043  62.3832369  36.0438871  35.4825020  63.2827044
 105.7103233  30.3043056  68.3598471 106.1893676  29.4811440  68.4555197
 104.8224656  30.0383282  68.1206894  56.0241413  47.1267319  91.3969803
  56.2542391  47.3269224  92.3042870  55.4102659  47.8175116  91.1475658
  91.5858413  68.4319766   3.0245506  90.9382201  67.8319080   3.3943283
  91.7879153  69.0361686   3.7389385  12.3453951  34.0766883  80.1063728
  11.4212477  34.0724492  79.8570395  12.4991250  34.9602008  80.4410458
  53.9494991  15.4816544  78.8767719  54.0017748  15.5403602  77.9228067
  53.2824707  16.1236191  79.1200542  30.3545117  43.8149118  33.4963727
  30.6669950  42.9465055  33.7502503  31.0948277  44.3961859  33.6704111
  32.1806765  28.1892085  54.9743462  32.4052930  29.1036224  55.1464796
  32.9328060  27.6929522  55.2972412  35.6682873  13.8689339  55.6433582
  36.5581703  13.6208308  55.8939266  35.6775856  14.8260891  55.6431103
  26.2310410  52.9587126  69.4559956  26.4201403  53.7043762  68.8863802
  25.7328486  53.3327436  70.1827240  47.8258371  19.9788177  90.8472347
  47.0601320  20.4487371  90.5169201  48.0162382  19.3269956  90.1726151
  49.2553771  82.4436481  37.2257435  48.4251607  82.6818998  37.6383125
  49.0137089  81.8116195  36.5487206  20.7876066  25.8465750   5.3983605
  20.9468702  25.2021105   4.7087681  20.8893684  26.6930658   4.9632275
  39.4636393  26.9864154  87.3076153  38.5554123  27.2154117  87.5048828
  39.6288347  26.1967158  87.8227043  71.5777088  68.4370632  25.5065453
  70.9416176  69.1074235  25.2570736  71.2629820  68.1100614  26.3493073
  28.8302183  43.2087898  82.6289272  29.7755480  43.3573914  82.6065731
  28.7135673  42.3476887  82.2275257  33.0185199  35.2730322  89.9015427
  32.9679465  34.9463892  90.7998562  33.8460851  34.9272370  89.5671844
  21.7918134  31.2950253  91.1953831  22.2193289  32.0612407  90.8127880
  22.3149443  31.0910130  91.9705868   0.7339611  49.1209602  26.7597437
   1.3231851  48.5621071  26.2530613  -0.0643322  48.6017466  26.8565583
  45.0671911  24.5457387  65.4139185  45.8953524  24.0923595  65.5714846
  45.3220558  25.3800392  65.0199413  45.9813786  34.9388099  83.6525154
  45.0776672  35.1705384  83.8666153  45.9487820  34.6708107  82.7341747
  38.8762617  29.6608162  70.6065416  38.0183411  30.0810766  70.5466747
  39.5017242  30.3734279  70.4753399  14.7295570  18.8179493  55.1972723
  14.1878760  19.1773510  54.4946766  14.1015100  18.5189438  55.8548307
 102.8845022  94.3612362  54.9190664 103.5670683  93.8183749  55.3135777
 103.2776091  95.2316762  54.8555613  47.7411175  21.5027595  50.6577206
  48.5535765  21.0635328  50.4062843  48.0239773  22.2323942  51.2089491
  46.8940449  31.9232249  65.2581835  46.7440319  31.3629937  64.4966936
  46.1386490  31.7650938  65.8244038   4.7538114  34.8980594  48.3263731
   5.2959234  35.6687903  48.4946585   4.8240972  34.3765759  49.1259623
  72.3713350   6.1605591  58.7661076  72.2483873   7.0424819  59.1172886
  71.9056988   5.5916113  59.3790627   4.3011859   7.8344995  11.8373310
   4.3948749   8.0736143  12.7594387   4.7371772   6.9854719  11.7645752
  23.8927484   2.7922389  28.9742422  23.9488173   3.6707884  28.5984254
  24.0186644   2.9251507  29.9137688  40.9345007  36.1886382  59.5682192
  41.4617443  36.9714260  59.7278738  40.0672102  36.5257120  59.3436813
  46.4269780 105.2254871  91.3806915  46.5000104 106.0114233  90.8392048
  47.2872972 104.8105939  91.3179207  11.2517548  62.5637865  65.4961491
  11.5723646  62.7311420  64.6099043  10.4206955  62.1065044  65.3678417
  81.2931538   6.4511120  55.6349897  81.7692375   7.2431874  55.8843660
  80.9530067   6.6413736  54.7607279  57.7458048  55.5325699  69.8993778
  56.8652868  55.9041023  69.9530649  57.9038095  55.4255009  68.9614010
  33.7451553  50.3393936  83.3416939  33.7052464  49.3889189  83.4476852
  33.2371807  50.6838465  84.0762329  44.5245171  55.8988094  65.2206182
  44.3872499  56.7461061  64.7969723  45.4375505  55.9194803  65.5072832
  33.5369468  28.0197811  48.2622528  33.6895013  27.0953608  48.0662727
  34.0411353  28.1819582  49.0595722  25.9770203  34.8918104  83.9936733
  25.2254272  34.3525243  83.7476921  25.6084776  35.7625341  84.1428185
  13.5763692  97.3062689  41.2060833  14.2238664  96.6413987  41.4404392
  13.2968854  97.0673919  40.3223085  36.7828894  29.5232821  87.7696037
  36.7732501  29.8969626  86.8884087  35.9393334  29.0781498  87.8502369
  22.0087671  57.9784822  65.0302696  22.6218486  57.8406477  65.7523203
  22.2309399  57.2984695  64.3943024  45.7430506  40.2742290  67.9562902
  45.7944822  39.6295238  68.6619377  46.6494846  40.5473852  67.8148937
  98.2482243   5.1057762  78.7034512  98.3699036   5.8039212  78.0600071
  97.8970051   4.3727246  78.1979656  50.8077777  88.6793120   3.1279957
  50.9394611  87.8979142   3.6649429  51.6430987  89.1445310   3.1731903
  25.2832937  46.7323923  82.1707726  25.1143098  45.8301115  81.8995380
  24.8596048  47.2675514  81.4997101  73.4717751  13.6273062  80.7546425
  74.0178776  13.9934540  80.0589848  73.6884165  14.1477740  81.5282154
  20.1602030  20.4402304  85.7076931  20.7069540  21.1437535  85.3579044
  20.7839036  19.7992122  86.0487556  10.2108386  96.7771847   2.9099953
  10.0305941  96.3845809   2.0558273   9.9935534  96.0901244   3.5400402
  54.5903873  26.4243722  83.7058353  54.6309710  25.5185413  84.0125275
  53.6753654  26.5516472  83.4553051  15.7266068  31.2440300  90.8022690
  15.3639293  32.1112156  90.9830570  16.1634374  31.3388038  89.9558449
  41.4332771  47.8599834  41.7213631  41.0457706  47.2534084  42.3523426
  40.6974363  48.3907843  41.4163828  72.9825687   6.4755285  70.8910179
  73.0685186   7.0644963  71.6406631  72.4745846   6.9745553  70.2513647
  82.9030609  22.3305774  55.3779840  83.8491631  22.2075772  55.4553604
  82.5630093  21.4570308  55.1842928  44.5221710   1.5495406  68.0960560
  45.1134014   1.8783619  68.7732220  44.6491909   2.1449953  67.3574543
  50.6792831  35.0867486  62.3807335  50.7754374  34.8463392  63.3022499
  51.1374426  35.9235239  62.3024416  57.9032707  24.2425013  79.6539116
  58.6488342  23.6520600  79.7623158  58.1894732  24.8703814  78.9905214
  47.6873922  21.3770175  55.3948069  47.7378130  21.2422681  54.4484806
  48.5557222  21.6984177  55.6375694  19.0921795  16.6727006  68.5279083
  18.1619024  16.4658821  68.6175919  19.5051038  15.8342421  68.3212376
  44.7532988  45.9823895  55.6865931  45.6505442  45.8725119  56.0014200
  44.2131376  45.5464220  56.3456726  39.5870733  19.0712833  79.7867918
  40.0380754  19.5778251  79.1113329  38.8164735  19.5955551  80.0048447
  67.8621578  43.7922096  82.4042606  67.9555082  44.0310717  81.4820576
  68.7556839  43.8073063  82.7472210  12.2650456  27.7835512  62.3145962
  12.0009243  28.6382818  62.6550436  13.2196522  27.8310204  62.2625971
 108.3685730  97.1065873  60.3135014 108.4248636  97.3303831  59.3845367
 108.8847086  97.7815962  60.7541847  64.4864845  13.8984811  69.5151663
  63.5432386  14.0605974  69.5303965  64.8501539  14.5432210  70.1220322
  66.0614491  26.1854243  82.7458382  65.2695704  25.7934046  83.1139183
  66.5719652  25.4406738  82.4281025  58.6096168  78.7867339   1.7404091
  59.4657207  78.4912021   2.0502197  58.0244256  78.6479242   2.4850666
  30.3950644  38.4400129  46.6949034  30.0170684  37.7071619  47.1809864
  31.0018563  38.8491058  47.3118973  61.3242961  68.3638818  17.1629631
  61.7436696  68.6805553  16.3629162  61.4622284  67.4168069  17.1469509
   0.6585824   3.8823411  81.8087578  -0.2718112   4.0287238  81.9795609
   0.7718509   4.1121814  80.8864975  36.7413592  50.3911209  83.4289551
  36.6572595  49.7337675  84.1196346  35.8964896  50.8409929  83.4223080
  49.6747923  44.4720793  56.1151361  49.8316956  44.7966003  55.2284050
  49.7856760  43.5238218  56.0462666  29.1827059  53.6979342  63.2428837
  29.7645998  53.1254387  62.7430058  28.3747554  53.1936550  63.3385420
  64.2463303  12.5705445  39.7948146  64.7405577  12.2911799  39.0241480
  64.9110794  12.9024649  40.3982830  29.4827890   6.4230621  59.0136433
  28.8280797   7.1202028  58.9738560  30.0370836   6.5710318  58.2474232
  64.4264984  19.0448499  73.5925055  63.6010647  18.9249015  74.0620756
  64.9763584  18.3180571  73.8851833  38.0715561  41.4443350  82.8780937
  37.7902484  40.5353117  82.7742767  37.3147345  41.9621038  82.6035690
  50.2984858  35.1296496  68.1421566  51.2167645  35.3463817  68.3034754
  50.0448084  35.6916237  67.4099922  30.5175686  59.1286564  79.8688078
  31.2655020  59.5050526  80.3326511  29.8160887  59.7693491  79.9857569
  56.7831469   3.9117342  58.6068058  55.8301640   3.8450035  58.5467768
  56.9524336   4.8496222  58.6959124  61.4206362  24.2275047  78.8267612
  62.3727274  24.3143106  78.7796116  61.2747574  23.5386610  79.4751787
  55.8886623  11.3899350  81.7573357  55.3571653  12.1822298  81.6797924
  55.6082773  10.8408201  81.0251522  71.6806603  59.9721236   5.1654827
  71.4854050  59.7692199   4.2506420  71.1835910  60.7701613   5.3451836
  71.3344383  33.5106349  74.3310261  71.5929890  33.5620499  73.4108448
  71.3842964  32.5783277  74.5420933  52.0961714  39.5610714  67.9714346
  52.3813009  38.8719344  67.3714113  52.5657415  40.3423595  67.6793289
  12.3049247  40.8104944  86.8785858  13.2328844  40.6676245  86.6922760
  12.2241390  41.7589331  86.9794464  46.7802763  36.8958116  71.8106079
  46.4775658  37.2175026  72.6597929  47.6270390  36.4898992  71.9962502
  61.7595577  41.8743467  79.7328377  62.1631575  41.1042404  80.1331806
  62.4984455  42.3993635  79.4252110  35.8259797  34.2844296  82.9913902
  35.5967832  33.7516999  82.2298813  36.5919971  33.8496256  83.3660793
  69.5309019  37.3671675  78.8326740  69.4421911  38.3045626  78.6604643
  68.9565277  36.9502473  78.1904125 107.8447125  94.4000221  52.8796196
 106.9237111  94.1440487  52.8299618 108.0241606  94.8137951  52.0353317
  46.7185545  44.2852783  60.6628084  46.5854597  43.4256268  60.2634096
  46.0925579  44.3126917  61.3864136  72.3162842  12.2313809  71.6911077
  71.8373442  12.7299106  72.3531628  73.1521034  12.0213139  72.1076441
  80.7237829   6.1416656  14.6788037  81.2486179   6.9167501  14.4787323
  80.5727823   5.7286627  13.8285935  21.1301565  31.4832401  56.6577101
  21.8989682  31.1843300  57.1433163  21.2013340  31.0508013  55.8067322
   0.0920275  17.1679950  65.2648973   0.0415621  16.9776094  66.2016153
   1.0278747  17.1427536  65.0654364  48.7685061  41.3840675  59.3191338
  49.2430592  40.7571602  58.7732220  49.1256142  41.2549496  60.1977921
  32.5265908   3.2272559  61.3569212  31.5924358   3.0189246  61.3704443
  32.6829696   3.5694045  60.4767466  17.7459824  30.8065748  54.5889378
  17.1166754  31.2344146  54.0082836  18.6017454  31.0567355  54.2406225
  81.9265319 102.4413092   2.5410950  81.8365241 102.4187453   1.5884030
  82.5591899 101.7506011   2.7383244  42.5593281  56.5288877  61.0040712
  42.5097847  56.9745541  60.1584005  43.4971046  56.4259529  61.1659861
  53.9899826  37.6123285  60.9006977  54.5809507  36.8930531  61.1234760
  53.5748863  37.3368645  60.0833559  47.9287577  49.4414330  68.0625534
  47.1760225  49.6636629  67.5146151  48.4789038  50.2244902  68.0427790
  55.0317669  32.2158647  68.0177879  55.7578039  32.6075768  67.5323343
  54.3465424  32.0877147  67.3618317  46.1664486  58.8566208  77.5994110
  45.2369356  58.8796091  77.3720169  46.2078810  59.2371321  78.4767485
  80.6677581  96.2637742   0.0300800  80.6826020  96.7317851   0.8649361
  80.1060296  95.5055172   0.1905262  38.2793593  29.3827915  64.7269249
  39.1341162  29.7640634  64.9275589  37.6493239  30.0475740  65.0050497
  50.9465265  37.2152352  74.1324759  51.6277122  37.4502921  73.5024261
  50.8715010  37.9815483  74.7011280  31.2288141  44.1259384  71.4899492
  31.6870046  44.8668814  71.8865585  30.5905986  43.8574123  72.1508598
  33.7303185  47.6910686  84.2985344  33.7233138  47.6470470  85.2546978
  33.0167270  47.1137762  84.0269566  73.0630351  95.4842169  17.8912651
  72.9950834  95.8350117  18.7792694  72.3556996  95.9130223  17.4095642
  52.0882940  29.4333196  80.7224274  52.0588827  29.0796566  79.8334503
  52.9300165  29.1382980  81.0698414  41.9908142  57.6727486  75.2566051
  42.0824623  57.9987192  74.3613005  41.9468451  56.7212772  75.1617527
  43.3072186  45.9673882  88.2490540  43.0445814  45.3261185  88.9093876
  42.8427553  46.7676210  88.4942627  37.6596212  27.1388078  73.7311745
  38.3843708  27.0870686  74.3543053  38.0778098  27.3373270  72.8933525
  81.4910031  93.1297071   4.6632874  80.9430076  93.4354813   3.9404881
  82.3386241  93.5490448   4.5152390  21.4659357  43.5621834  49.2449379
  21.5940070  42.9083204  48.5577011  20.9233284  44.2363787  48.8359594
  63.4682227  83.0690272   9.2393410  63.8251901  83.4715326  10.0310433
  63.9647222  83.4663494   8.5238945  55.0101519  69.7328043  74.4567823
  54.6694183  70.5696058  74.1407299  55.8536816  69.9518204  74.8526573
  50.5114460  44.7712517  53.1778145  51.1986303  44.1214180  53.0304098
  50.0560141  44.8329067  52.3381662  31.5805244  42.9571629  82.7426529
  32.2439265  42.7407694  82.0874405  32.0257926  43.5507011  83.3473682
  55.4342937  47.1739960  77.9924393  55.5576944  46.8178988  77.1125507
  55.9967375  47.9480791  78.0185986  30.6712914  13.8011193  55.0943565
  30.0656748  13.1349885  54.7691965  31.1423635  13.3691823  55.8069229
 112.5476529   4.9503071   9.4739735 113.0991008   4.3958074  10.0259411
 112.4878551   4.4777996   8.6436760  64.0645170   7.1503198  54.5789766
  63.7681675   7.6623923  53.8265228  65.0194359   7.2080487  54.5468569
  95.6248713  86.8311698  15.0729477  95.0393678  86.2244709  14.6197998
  96.3859702  86.9046171  14.4971287  52.9046774  51.0739374  60.9623432
  52.9733849  51.2492561  61.9008398  53.7516642  51.3419771  60.6059790
  30.2257133  74.5077133  55.0971842  30.0870156  75.3476858  54.6596384
  31.1727476  74.4590473  55.2275229  53.3110094  46.5438128  73.9343548
  53.4696484  45.8349323  73.3110142  54.0310907  46.4769411  74.5614481
  53.7103844  40.1718044  58.8189125  53.5974312  39.5673585  58.0853462
  54.4485807  40.7245064  58.5623550  56.1419582  30.6211615  78.7691021
  57.0475864  30.4165912  78.5362625  55.6153107  30.0818205  78.1791973
  25.4948235  70.3632879  61.6824007  25.0446773  69.5279980  61.8084478
  26.0443974  70.4589653  62.4602461  18.0278575  47.2726059  90.7279205
  17.8832233  48.2157850  90.6522274  18.6952949  47.0790529  90.0696754
  49.2452383  40.5364847  70.0746202  49.5938444  41.3821745  70.3565979
  49.1473436  40.0357151  70.8844852  23.7741184  26.7655444  46.7990971
  23.4650707  27.4625325  47.3778248  24.0098166  27.2150016  45.9875107
  48.0735826  25.6446958  54.7912073  48.3802748  26.5058088  54.5072174
  48.5291290  25.4890609  55.6185436  22.5792098  36.8517160  69.5128918
  22.9831576  37.4542475  68.8883781  22.5169754  36.0221672  69.0393877
  32.4554396  48.6038685  59.8773766  31.9336867  48.0002642  60.4062080
  31.8150282  49.2077160  59.5012474  56.8335629  29.9071002  49.0033865
  56.1832857  30.4074407  49.4963646  57.1078396  30.4970980  48.3013153
  34.0720630  58.6190367  79.0837717  34.2841053  59.5523834  79.0951777
  34.6283984  58.2387066  79.7635317  37.9051280  49.6120119  64.1226768
  38.6182833  49.0949154  63.7481737  38.0083060  50.4800797  63.7327433
  41.7794228  28.5625863  73.0135059  41.5233707  29.4163156  73.3625269
  42.0799828  28.7479162  72.1238136  19.9309659  32.3517156  65.7106876
  19.2345035  33.0076361  65.6800175  19.7722590  31.8716788  66.5234661
  12.9915690  61.0936260  67.0522070  12.2211623  61.6408682  66.8997860
  12.8122151  60.2874279  66.5683556  44.2707539  11.2398732  55.0901842
  43.8433504  12.0241022  55.4344893  45.0082350  11.0897863  55.6816483
  52.9273319  35.2233505  88.9334679  53.1658220  35.8578300  88.2576084
  52.9961967  34.3732524  88.4989357  96.4317036  27.6145744  42.9266739
  96.8928814  26.8963981  43.3599901  96.1563778  27.2495961  42.0857096
  50.4258966  61.2367964  58.1011724  51.2060022  60.9800529  57.6094913
  49.7403336  60.6468773  57.7877665  49.7431374  39.1262913  57.9344702
  49.5913839  38.2531810  57.5726938  50.6816196  39.2741227  57.8177357
  43.8181210  60.0243235  61.8644333  44.5312405  60.6617308  61.9017839
  43.6310959  59.9286079  60.9305763  28.9026928  55.7482147  82.5340462
  28.9361763  55.8901930  81.5880203  28.3389592  56.4490223  82.8616142
  40.6406975  42.2044849  65.5022812  40.0914907  42.5242138  66.2180853
  40.6191301  41.2516546  65.5910492  63.9146185  32.2600389  49.7839212
  63.1587601  32.8279233  49.9336576  64.3558359  32.2198606  50.6324196
  36.8250394  49.1687870  50.8083820  37.6131010  49.5596409  51.1857748
  37.0069504  48.2291365  50.7941961  49.3900776  48.7343597  85.2136803
  49.5095301  49.6840763  85.2162933  50.2044630  48.3915424  84.8456001
  36.1126614  24.0939522  89.9846935  35.4627776  24.7953892  89.9414825
  35.5948830  23.2908368  90.0407505  57.0970058  49.4995403  67.6878119
  56.8307590  49.0437651  68.4863186  58.0495071  49.4074154  67.6657152
  61.5062237  35.1651263  91.2485504  61.6259289  34.3049145  90.8461285
  60.5584526  35.2991414  91.2498569  39.2815137  20.3333378  72.3993063
  40.1598358  20.3344989  72.7798033  39.3892026  19.9061847  71.5494967
  63.6571217  42.3852491  64.4008684  64.5847750  42.4976969  64.1933966
  63.5996580  42.5552702  65.3410959  40.7122755  44.1144991  74.7568893
  41.1103773  44.9335575  74.4621181  40.8636761  43.5019588  74.0370989
  84.2289829  72.0093918  74.2982864  84.8184681  72.3527431  73.6268282
  84.7506142  72.0156240  75.1008463  52.9248381  74.2032909  81.8979073
  52.3056984  74.3307400  81.1791134  53.0555487  75.0797987  82.2596836
 112.9484559   4.1729354  55.0372934 112.8909875   4.1456127  55.9923744
 112.5590087   3.3470153  54.7501898  60.5869818  90.4481220  65.4451847
  60.5038977  91.3433361  65.7736969  60.6083965  89.9048996  66.2330198
  43.8722467  79.8977804  62.2332525  44.3900585  79.2456341  62.7052832
  44.2150354  79.8748398  61.3398314 109.7554111  79.1923523  69.4216251
 109.3183517  80.0046158  69.1658163 109.0580368  78.6517000  69.7925806
  56.7212057  73.9362478  70.6110287  57.3838520  73.2485056  70.5466890
  57.2050810  74.7084141  70.9040451  43.4314206  25.9496481   2.5768387
  43.7356141  25.0485832   2.4683106  43.7531713  26.2086994   3.4403145
  55.1149038  61.1790258  13.6879170  55.5534318  61.6000063  14.4273102
  55.3765252  61.6978819  12.9272759  57.1651411  54.2601871  91.2003708
  56.9081545  55.1505375  91.4400864  56.3385487  53.7822151  91.1331081
  48.9362863   7.1561653   3.0702126  49.8622468   7.2877151   3.2739842
  48.4803727   7.8189165   3.5889828  39.8212674  37.8591902   4.2749798
  40.0164226  38.5075647   3.5983956  39.9684194  38.3220274   5.0998223
  58.5999155  68.9392090  60.4191971  59.3496847  68.6079979  59.9248505
  57.8611422  68.8596535  59.8157787  67.0065308  90.1873779  71.4540195
  66.2868595  90.6587791  71.0343933  66.7423391  89.2679691  71.4206028
  53.8339090  68.9959288  85.2253532  53.6065149  69.7897291  85.7095051
  54.4733143  68.5510063  85.7816219  25.3788188  35.2705938   4.7001850
  24.7314313  35.9595568   4.5503628  24.9192575  34.4591028   4.4845116
  57.6531792  75.7669020  80.4084110  58.3630466  75.7171059  81.0486031
  57.0483685  75.0714493  80.6668472  69.9812317  81.6295815  67.7320433
  70.2815247  82.5377750  67.6967192  70.3587627  81.2220001  66.9525671
  56.1159706  82.2593021  86.0271072  56.8443823  82.7529526  85.6503391
  55.3368044  82.7598381  85.7850552  89.0551758  87.0331573  90.0575733
  88.8677502  86.4972687  89.2868996  89.9654961  87.3062611  89.9437618
  83.5801411  92.5815773  71.5204668  83.1771564  91.8229294  71.0982180
  83.3802700  92.4724770  72.4501896  57.9973173  59.0384626  59.7173738
  57.5644302  59.5595503  59.0411282  57.5117683  59.2348766  60.5185556
  26.2365964  27.5983507   9.0902340  26.8640903  28.3162195   9.1747391
  25.9577802  27.6304228   8.1751072  34.7292924  90.7869339  77.6751709
  35.6364560  90.6371498  77.9413462  34.7313929  91.6687870  77.3029470
  89.1536808  53.6026907  53.1769466  88.4974194  52.9516363  53.4252977
  89.9321556  53.0884886  52.9629374  76.6531610  82.3976612  78.1511593
  75.9813881  81.7515182  77.9333162  76.4032459  83.1787395  77.6575041
  62.9672432  89.5029831  64.3763828  62.8176498  89.0842152  63.5287476
  62.0905399  89.7149086  64.6968746  38.5620403  84.7820950  49.0984774
  38.0157590  84.5541000  48.3462620  38.2925582  84.1710091  49.7841787
  73.6826229  69.3103886  65.0278997  74.4541693  68.7856865  65.2415371
  73.3660555  69.6263933  65.8741617  78.7213373  82.8756523  80.6176376
  78.1992340  83.6587906  80.7918072  79.4883251  82.9685593  81.1827278
   2.4996999  31.1328394  14.6833431   1.7330721  30.7009012  14.3065846
   3.2456973  30.6504995  14.3268788  45.6807518  87.6164913  64.4718218
  45.4014730  87.6936340  65.3841209  45.4694605  86.7141914  64.2321444
  90.4298496  84.9828625  50.7539892  89.5995235  85.4577351  50.7181358
  90.3079224  84.3395996  51.4522552  62.9186821  96.6505241  74.4728088
  63.5312748  96.0830402  74.9407005  63.2688665  96.6991425  73.5832930
  18.4203008   2.4252493  22.3919308  17.4776080   2.5893671  22.3669064
  18.7509301   3.0288631  23.0571854  84.9978828  99.1809845  71.7522097
  84.1477871  99.5958710  71.6057634  85.4115582  99.1713428  70.8890676
  72.3102760  88.1912994  76.3062429  71.6660786  88.5557079  76.9132376
  73.1376410  88.5992718  76.5616894  29.3007183  64.7998333  50.5931091
  28.8855219  65.3821516  51.2293148  30.2388549  64.8957109  50.7572412
 107.2006656   1.4781379  74.9588776 106.2839795   1.5484142  75.2253008
 107.5960303   2.3029041  75.2411556  64.3400860  51.9173765  86.0585690
  64.2018890  52.8456831  85.8704758  63.4582138  51.5606308  86.1647034
  40.2830222  22.3420984   2.1649277  40.3597358  23.2215053   2.5350582
  39.3982557  22.0606071   2.3977005  47.5130081  67.6983452  83.5034847
  46.8604136  68.3963203  83.5599327  48.1121254  67.9857635  82.8145123
  41.2406400  26.4220411  23.0001938  41.2577823  26.1636240  23.9216911
  40.8132079  25.6908066  22.5542843  70.9291935  91.4859104  84.3183041
  70.7663870  90.5716324  84.0863037  71.6958714  91.7315388  83.8005161
  55.0012064  76.2736940  67.6955509  54.3494654  75.5831099  67.8162098
  55.1798439  76.2727833  66.7551708  63.9224195  66.9795752  85.6441689
  63.7990284  67.8910112  85.9092903  64.0675211  66.5089321  86.4649487
  44.2324880  30.5058844   3.1883061  44.5787671  30.0528795   2.4194729
  43.9697126  29.8028547   3.7823784  52.2753191  69.0493059  57.9252958
  51.7978334  68.7919903  58.7139797  51.5916061  69.2632151  57.2904634
  77.0682049  76.7407751  47.0717669  77.9707956  76.8570995  47.3684740
  76.7246389  77.6309109  46.9952488  76.0972309  94.0730476  75.1930761
  75.3715754  94.4757557  74.7161293  75.8061838  94.0591621  76.1048508
  73.8756037  86.0440826  69.4769573  73.2405853  86.6239548  69.0565729
  74.2516947  85.5383110  68.7565517  60.3658962  72.2217417  75.7681370
  60.5424595  72.1325636  74.8315954  61.0017252  72.8699493  76.0710812
  31.2800840  35.1094419  26.5215790  31.3133624  35.6706221  27.2963059
  30.3732780  34.8051340  26.4850342  42.3556137  88.3985615  81.6516304
  42.1619940  87.6596546  81.0747719  42.3469257  89.1619205  81.0741806
  47.3060083  73.2809353  65.6497955  47.9964066  72.6586866  65.8786964
  47.7750301  74.0707874  65.3807545   2.5904705   9.9907588  91.1657715
   2.1649840   9.1959571  90.8440876   2.8225758   9.7881507  92.0720387
  74.5820904  77.8402901  82.6761150  75.2356100  77.1412849  82.6531029
  73.7731457  77.4216509  82.3818684  75.0214481 100.8646774  83.2352829
  74.5175743 101.6565132  83.4232807  75.7195807 100.8639145  83.8901424
  56.6863441  71.1063337  60.4314566  57.4525833  70.6702423  60.8041906
  55.9416914  70.5969143  60.7511663  79.9869728  73.3825684  60.6946611
  80.4072285  73.2650805  61.5466070  80.5594921  72.9237700  60.0798702
  82.4866199  65.9874392  79.1515398  82.2840500  65.6645489  80.0295734
  83.1749344  65.4028177  78.8342381  84.2363453  92.0245838  38.3770394
  84.9046040  92.3194313  38.9956808  83.4211063  92.0429897  38.8783169
  87.3899937  61.7870522  75.1314640  87.5638771  62.6520061  74.7601843
  87.3888779  61.1982679  74.3767643  80.4266262 100.1921177  48.3112478
  80.9399128 100.9976959  48.2494211  80.7581997  99.6418095  47.6016998
  73.9019156  59.5146036  62.1296406  74.5642900  58.8552046  61.9230413
  73.9993095  59.6655369  63.0698347  72.7046442  68.3824778  61.4109755
  72.8077412  67.4323130  61.4637661  73.5118341  68.6883640  60.9973240
  42.6146221 102.7452469  65.3182459  42.3563290 102.8385067  66.2352085
  41.8108511 102.4850368  64.8682785  21.1076739   5.3943443  48.1838274
  21.2886240   6.3047313  47.9500055  21.9641592   5.0294113  48.4063053
  80.6417656  75.5935287  75.7118607  80.9545326  75.4259300  74.8228598
  79.7293854  75.3041744  75.7032967  42.2254992  75.7950544  62.2395849
  42.7860498  75.0648928  61.9771338  42.3238230  75.8427143  63.1905270
 105.0647545  85.6323528  83.4702396 104.9608803  86.5834808  83.4417439
 105.6627655  85.4350185  82.7493572  48.8027814  29.4394667  27.9516041
  48.3943036  30.2392942  28.2827580  48.9982274  28.9276678  28.7365257
  65.4387093 106.0436344  70.4003572  64.9424982 106.8608284  70.3535175
  66.0481787 106.1748028  71.1266994  46.4338207  82.0113468  49.1676521
  46.9087362  81.3113117  49.6155882  45.5712271  82.0190907  49.5825052
  38.4538654  69.4336302  12.7738869  38.5239890  68.7910158  13.4798348
  38.8298610  70.2339918  13.1403458  58.4122562  77.7038431  89.2356968
  57.5218391  77.3526669  89.2437935  58.7803555  77.4041843  88.4044743
  82.9511070  95.7091427  67.7753592  83.3046722  94.9371338  68.2172060
  82.0353985  95.4889202  67.6044655 106.7045879  56.9486570  37.2282219
 107.5698662  56.5396452  37.2126698 106.1084080  56.2590313  36.9363046
  59.2882204  76.3118076  86.7573929  59.1640520  76.2269449  85.8120823
  59.6806288  75.4801321  87.0230389  63.1075668 101.9514942  66.1758423
  62.3406363 101.5146446  65.8054113  63.1649303 101.6167450  67.0707607
  55.3323415  46.8699915   4.0097153  54.5967534  47.4613459   4.1691982
  55.0570920  46.0367853   4.3921292  69.1871023  97.7150726  75.3438950
  68.9044666  97.4038315  74.4839668  68.5761786  97.3084831  75.9584618
  35.0747395  86.5115070  70.2888632  35.1127219  85.7573891  69.7005606
  34.3568373  87.0451450  69.9481630  77.9698610  77.6159906  62.9624557
  78.0068731  78.2126141  62.2148561  77.2079325  77.0628691  62.7899742
  79.8594618  84.2262554  62.7986097  79.7965574  84.5317554  61.8936539
  80.6386280  84.6614075  63.1446886  63.9887857  76.1276340  72.3837280
  64.4268560  76.5030050  73.1475544  64.5056009  76.4318466  71.6376781
  34.0913490  49.2278749   1.1765396  33.6672977  48.9999372   2.0038616
  33.5350803  48.8324816   0.5053723  39.7025394  79.1011667  47.8088570
  39.5413876  78.5607862  47.0353889  38.8638592  79.5292187  47.9809475
  28.2884410  11.8726761   2.0263207  27.3705056  11.6584904   2.1929085
  28.2930234  12.8207094   1.8942558  34.9425435  75.9749317  74.0621471
  34.3225694  75.2515411  74.1547155  34.8737407  76.4563322  74.8866177
  35.8380416   7.0519621  16.9379246  35.2109245   7.5181896  17.4907314
  35.9758285   6.2164385  17.3841870  67.8534937 104.0921783  68.1891251
  67.0471716 104.4459057  67.8136873  68.4685183 104.0679264  67.4560595
  53.4369233   9.1033346  12.4268257  53.7881330   9.5894892  11.6808140
  53.9130452   9.4474632  13.1825459  61.4799500  79.0537262  83.3070755
  61.7974520  78.1858969  83.5566616  62.2607851  79.5159245  83.0022812
  25.9872917  26.8321402  20.8222019  25.3250459  26.2428743  21.1833489
  25.6352905  27.0957453  19.9720108  83.4373188  78.7895346  73.7841034
  83.4450150  77.8668356  74.0386486  82.8455162  78.8257647  73.0326462
  66.0215092  90.6213760  28.4359288  65.6916714  91.3050747  27.8528428
  66.3187551  91.0930347  29.2140126  98.8620949  79.3753767  87.6764584
  98.3216763  78.7103367  88.1029510  99.6262550  79.4643831  88.2459831
  44.6345186  89.4283009  74.9570131  43.7804508  89.8434353  74.8367405
  45.2430296  89.9882984  74.4749975  93.5554314  91.4285755  68.7253761
  93.8019562  90.5166626  68.5708857  92.9768467  91.6473198  67.9948759
  88.0009556 100.5298710  73.3617353  87.5210476 101.2483883  72.9498434
  88.0133247  99.8392105  72.6991129  92.8248692  77.6981068  78.5032701
  93.5568333  77.0884323  78.5968685  93.1751919  78.5395956  78.7955141
  65.5969048  92.2831059  44.9866295  65.8386612  92.8683186  44.2687798
  65.6155729  91.4081097  44.5989704  51.3176823  84.0222549  90.8245373
  52.0088148  83.4204197  91.1008835  50.5383444  83.7233448  91.2930679
  69.3466425  67.0848751  87.1176624  68.7691784  67.6438427  87.6375866
  68.8877630  66.9753551  86.2847900  85.8177757  31.6197348  84.5153236
  85.3274632  31.9044280  83.7441158  86.3796806  30.9141707  84.1948986
  37.6712087  16.6213495   9.4441330  36.7883590  16.3720781   9.7173988
  38.0211309  15.8374912   9.0206349  67.8782606  72.7929544  80.0082016
  67.0092821  72.4806452  79.7560644  67.8271437  73.7442636  79.9152994
  70.0871229  83.3872318  64.8242283  70.2911043  84.0704536  65.4628420
  69.1814566  83.5615158  64.5680475 108.4891845 106.6591723   3.3248818
 109.1615678 106.2473948   2.7821362 108.3474685 106.0403187   4.0412342
  53.6070871  95.6563854  58.1223059  53.4512043  94.7191906  58.0056953
  53.6099005  95.7824802  59.0711594  23.4438326   2.0480823  67.6678514
  22.8177741   1.3884830  67.9665184  22.9810812   2.8800392  67.7675915
  67.5698853  68.9838076  55.4845762  68.4996748  69.2092657  55.5143547
  67.4702168  68.4850883  54.6736670  24.9744705  38.1839258   6.7314732
  24.4342759  38.5945780   7.4065888  24.5456317  38.4157831   5.9077179
 106.9006920  65.8683491  57.4880266 107.2606564  65.0441456  57.8156614
 107.6406956  66.2999678  57.0610285  88.3406448  74.9771976  69.6625090
  87.9547691  74.1046476  69.7399187  89.2769814  74.8156023  69.5468426
  61.1302853  82.0651817  56.3273048  60.5537701  82.5742245  55.7574463
  60.9585905  82.4039555  57.2059298  53.7974977  79.4604826  84.5299053
  54.6161747  79.9219990  84.3482399  53.1333256  80.1494980  84.5492077
  68.2672119  92.6929092  71.1959028  67.9044294  91.8088818  71.1401129
  69.1420555  92.5699806  71.5643692  45.9228563 102.3287487  82.8777409
  44.9755335 102.1926403  82.8948307  46.2308788 101.7787933  82.1573830
  89.1926384 103.5163593  57.6768589  88.9028740 103.2228947  56.8130589
  89.3549347 102.7076721  58.1625652  30.2917865  15.0276644  20.4558193
  30.3983501  15.5957014  21.2188446  30.5649141  15.5683596  19.7146809
  79.3214703  86.7894650  73.7320280  80.0582123  86.4059353  74.2077875
  78.8762903  87.3356819  74.3798590 102.0264530  71.5561438  61.7856979
 101.8616390  71.7422724  62.7100515 101.1584091  71.3974237  61.4148569
  61.1971378 102.3675823  53.8089895  61.9161177 102.9795074  53.6513948
  60.5361843 102.6016998  53.1574059  25.0137522  20.7457351  79.0015173
  25.2489474  19.8381805  79.1945410  25.4916003  20.9512901  78.1980038
 101.2049867   2.6077079  64.8171902 101.1785699   3.4893512  64.4453716
 100.4266454   2.1758747  64.4651461 104.4332504 101.9756794  86.1465168
 104.1309834 101.9500065  87.0543766 103.8449955 102.5958061  85.7156658
  68.0064487  59.2911291  85.4958344  67.3213387  58.6391068  85.6432247
  68.4702206  59.3443394  86.3314915  80.0225067  69.0053034  57.9780531
  80.1713181  68.3784294  58.6859465  80.6479073  68.7525749  57.2989130
  52.3935652  80.0773335  40.7900429  52.6441813  79.1959858  40.5131769
  53.1645298  80.4130173  41.2473774  72.9355335  70.1756430  49.2811251
  73.2757664  71.0072851  49.6110392  71.9844961  70.2829885  49.2964029
  97.8897858  87.2603798  79.1213608  98.2715607  86.5952969  78.5485172
  97.0556545  86.8842316  79.4023848  93.3537722   0.5292129  88.9182758
  93.7831593   0.8579540  89.7080803  93.2873393   1.2935924  88.3459663
  72.9471874  87.2419930  64.8224592  73.5137701  87.8261185  64.3184566
  72.0684290  87.6042175  64.7092772 101.8336964  86.2734127  66.7843056
 101.7898083  87.2266579  66.8593073 102.7350903  86.0557270  67.0216656
  50.6994438  83.1309223  67.4827719  51.0911369  83.3682442  66.6422462
  50.8453703  82.1878529  67.5572538  72.4660349 100.3265285  38.3365488
  71.7733717 100.7560158  38.8385391  72.3905420  99.4007492  38.5677457
  60.6183100  76.8919754  76.0872602  60.4472399  76.0467005  76.5025616
  61.2084675  77.3410988  76.6924381  34.0394977  36.1522467   0.3923142
  33.0894569  36.2325174   0.4772293  34.3765024  37.0095808   0.6523621
  61.1865902  75.6994152  58.0591488  62.0210743  76.1682224  58.0682278
  61.4075661  74.8115969  58.3405399   6.2243799   0.5395538   5.6800091
   5.3970531   1.0087950   5.5724346   6.5680221   0.4530079   4.7908222
  40.1272682  45.3119738  21.7635834  39.2011407  45.0905687  21.8610298
  40.1960519  46.2065393  22.0971310  43.6001352  12.8958017   3.8834870
  42.9534868  12.4615223   4.4397938  43.9509252  12.1958954   3.3327591
  88.5768223  71.0769892  63.9340687  88.3276272  71.7014933  63.2527924
  89.2837429  70.5643225  63.5420704  61.3285780  84.9381447  61.7852831
  61.7594051  84.5963573  61.0018253  60.4661703  84.5228386  61.7848492
 107.7006721  57.8364801  89.5652199 106.7742825  57.8020144  89.8036289
 108.1656933  57.7076578  90.3918934  93.2250501  14.9663829  49.1029406
  93.7909366  15.4433631  49.7099829  92.7247191  14.3702030  49.6601343
  75.8741093  85.8276176  83.5357285  75.3540707  85.0288296  83.6236572
  75.2785969  86.4576530  83.1299591 112.8782512   2.8646564   7.0982289
 112.0136596   3.2751464   7.1127892 112.6969148   1.9253826   7.0649159
 104.5746326 104.3090153  32.4510956 103.7077904 104.7134781  32.4160838
 104.5979977 103.7265491  31.6918707  81.9020939  96.0981369  53.4394455
  80.9579372  96.2029743  53.3218670  82.2583389  96.9774914  53.3127022
  71.8638325  80.3480816  88.7704372  71.8305683  79.4551086  88.4273338
  71.0115719  80.4765892  89.1868210  16.5612224  33.4965879   9.9837219
  16.9843295  33.6812574   9.1452038  16.0414794  34.2791540  10.1672280
   6.4871696   7.1569998   3.1292164   5.7806209   6.9054348   2.5344669
   6.7369941   6.3411219   3.5629952 104.4042683  53.1201458  89.5441246
 105.0572872  53.2026243  88.8491440 103.5713959  53.3151245  89.1145515
  85.0390148  81.8658066  60.7722616  85.2275562  80.9316826  60.6823015
  85.3193283  82.2479057  59.9406004  62.0183992  85.9977150  65.5677271
  62.3735809  86.2372494  64.7117472  61.5279865  85.1916504  65.4065084
 100.0218391  76.9598341  59.3574142 100.6961918  76.8435287  58.6881256
  99.2839813  76.4345455  59.0477943  40.0008490   9.6589660  43.0548334
  40.8357050   9.3407916  43.3983707  39.9662497  10.5774116  43.3222103
  38.4444431  35.8980543   5.6272041  39.2396978  36.3108332   5.2904331
  37.7942470  36.6005022   5.6335652  22.9655936  93.2163651   2.8265774
  23.9220812  93.2282741   2.7914726  22.7610304  92.7074511   3.6110508
  71.9706583  71.3590240  75.9746075  72.0645237  71.2583351  76.9218588
  71.9073677  72.3045063  75.8393526  13.2224754  10.2134592   2.0768845
  13.5168794  10.9935266   1.6067230  12.2751668  10.1951010   1.9408619
  58.3939219  80.4582977  89.1322613  58.2073450  79.5200968  89.1667843
  58.4853363  80.6501484  88.1989479  97.0109177  71.4194775  54.6585131
  97.1440983  72.1139526  55.3036499  96.0774708  71.2153769  54.7155428
  66.4260721  87.3733711  65.5888605  66.6051579  88.1634426  65.0790167
  66.8010187  86.6626072  65.0687981  65.9604979  74.0702295  78.0367231
  66.0487509  74.5139599  77.1931887  65.2694178  74.5529747  78.4901476
 108.1791592  84.5716763  86.1097527 108.2896233  85.5083942  86.2728214
 108.1015682  84.1842937  86.9816208  84.2687988  59.4554138  46.1416245
  83.5218620  60.0143242  46.3559628  84.9279976  59.6735096  46.8005085
  24.9222854  48.6026556   0.0246250  25.5159334  48.5151941   0.7703793
  24.2034963  48.0011160   0.2188313  52.1024946  47.5114901   6.9392407
  51.1790899  47.7059156   6.7787754  52.1675733  46.5614397   6.8423378
  44.6727943  44.8261547  62.7373075  45.0288248  45.3771973  63.4343195
  44.0424538  44.2577028  63.1797600  71.6780090  98.2031536  58.9488077
  71.4783478  97.4462128  58.3979845  71.0620832  98.8773251  58.6618328
  78.3389997  89.9997139  19.0892327  77.4621201  89.9433613  18.7095761
  78.8892126  90.3204823  18.3746696  78.1972599 104.2249107  52.0850325
  78.6948824 104.4049263  51.2874126  78.8510656 104.2408848  52.7839708
  67.5766325  79.4149971  60.2284145  67.9741383  79.6427822  59.3879747
  67.4409962  80.2559757  60.6649828  64.4924927  97.6549053  85.6745720
  65.2735472  97.1085167  85.7620239  64.3984890  97.7891731  84.7315121
  77.0904779  71.2278128  48.0777550  76.5836716  72.0393181  48.1067467
  76.4871645  70.5570841  48.3977032  77.6665211  71.1409187  67.3448610
  76.8779707  71.3953876  67.8240967  77.3780584  70.4345179  66.7669153
 105.5013371  67.6637411  87.1695709 105.4960537  68.4924507  86.6905689
 105.1369381  67.8807592  88.0276775  82.0084858 105.1488495  85.0528717
  82.7048397 105.7171917  84.7237682  82.4697876 104.4379139  85.4978371
  81.3674355  79.1349983  85.6136417  81.9484711  79.2558384  86.3646603
  80.5315781  78.8702154  85.9976482  66.7588091  98.5135651  47.1288443
  66.5396833  99.0496349  47.8909779  67.5397444  98.0278301  47.3942184
  69.9392796  96.3649368  57.1592426  69.2142296  95.7422638  57.1061087
  70.4189777  96.2444782  56.3397217  64.1878414  67.8568697  42.4931240
  64.3122149  67.5246239  43.3821583  64.8597193  67.4132204  41.9754553
  60.7745221  36.9817621  23.4248364  60.0328019  37.5027353  23.1171333
  60.8201650  36.2460310  22.8142178  93.6349201  87.4569416  61.3927984
  93.5299873  88.1557655  62.0384455  94.5288277  87.1411324  61.5248108
 101.5320206  48.5347080  59.3934441 102.1563816  48.5523319  58.6681223
 102.0772839  48.5641623  60.1796103  68.6715364  92.5662327  54.9490690
  68.6577511  93.0836487  55.7542562  67.9392099  92.9049873  54.4341183
  77.8907728  82.1876240  84.3517971  77.5395441  81.4503956  84.8511600
  77.2409153  82.8819370  84.4606400  32.9142097  27.2942621   1.6868412
  32.1948913  27.6824457   1.1887180  33.4820560  28.0337793   1.9034016
  89.3660545  73.4792280  91.5464115  89.1750145  73.9037609  92.3827839
  89.0501881  74.0966988  90.8867264  67.5066328  87.1995449  79.2243910
  67.6529503  86.4601421  79.8144054  66.6327572  87.0490551  78.8639450
  62.0043373  80.6013107  63.5595465  62.2194242  79.6974897  63.3291769
  61.0510063  80.6062317  63.6453724  61.2335968  68.3079100  87.9193306
  61.1026716  69.1484737  88.3581257  61.6301155  67.7483463  88.5870838
  83.2983398 105.5538559  45.4126167  84.1363049 105.9033298  45.1094389
  83.4228420 104.6048164  45.4189730  49.3842939  15.4052193   0.4421436
  48.4774354  15.5299694   0.1623547  49.6473172  14.5774061   0.0399315
  73.0851987  38.5628206   1.0712921  72.3377660  38.3974058   0.4966557
  73.3810285  37.6918775   1.3361942  62.1614698  21.3506681  12.3716366
  63.0682138  21.0998709  12.5481331  62.1552041  21.5898926  11.4448273
  75.1789141  84.7420788  56.3452578  74.6521425  84.7993851  57.1424150
  75.7430410  83.9815331  56.4851141  89.9087334  72.8893375  38.6367035
  90.8313370  73.1157589  38.7540460  89.4527054  73.7308836  38.6446881
  70.9050751  80.0119972  53.9853573  70.6554174  79.2653513  53.4409094
  70.1937628  80.6418324  53.8688660  78.0659345  40.7918055   7.4680721
  77.8583959  41.5443975   6.9142162  79.0109399  40.6754476   7.3698055
  75.4318810  78.9082670  85.0455475  75.0500441  78.1394672  85.4690742
  75.2314568  78.7942266  84.1165352  66.3633776 106.6186905  50.6539392
  66.7013836 105.8203983  50.2480936  65.4428339 106.6486168  50.3932953
 107.5396919  91.1319160  56.4738131 107.4299526  91.6669178  57.2599220
 108.3626556  91.4353466  56.0905504  81.7018032  74.6350050  73.3043623
  81.8433380  75.1784086  72.5291777  81.6370869  73.7430668  72.9630470
  67.8762293  85.4611588  36.4532280  67.1059370  86.0291576  36.4690757
  68.6042356  86.0383797  36.6835451  59.3261960  30.3706343   9.4248879
  59.6429113  29.7158892   8.8026058  58.7200025  29.8910124   9.9894344
  72.9302931  83.3327961  54.9167013  72.0015001  83.1256390  55.0199461
  73.1120205  83.9693069  55.6081200  86.4080620  60.5483723  47.3410463
  87.0342064  61.2536669  47.1775579  86.2748718  60.5612612  48.2888460
  34.6277905  78.7233829  68.0599213  35.0662780  78.0056858  67.6028967
  34.0327191  79.0942001  67.4082947  55.6776810  78.6869431  74.9583817
  55.9841204  78.2859325  75.7717180  56.4713764  78.8082075  74.4372511
  51.5124702  66.6272783  55.9583187  50.9548426  67.3700047  56.1899281
  51.0405159  65.8619213  56.2865162  60.3743029  72.7203321  68.0241060
  59.8580122  72.8420973  67.2273350  61.2348938  72.4411964  67.7115393
  71.0422945  69.9069452  59.3401861  71.8439865  69.9623728  58.8201380
  71.0568094  70.6923628  59.8871231  88.1498337  95.5796242  55.9110880
  88.3776188  95.3087330  55.0217247  87.2230721  95.8136463  55.8602190
   9.1644003   4.4851207  68.0998611   9.6083739   5.2909278  68.3640385
   9.3233492   3.8765048  68.8213539  75.8076000  43.7675381  84.8673344
  76.0239935  44.5123148  84.3063354  76.4104080  43.8418341  85.6071472
  93.7001705 103.8736629  73.1689644  93.7426186 104.8026562  73.3957005
  94.1635418 103.8095284  72.3338556  51.7967176  80.9985828  69.7672701
  52.6329184  81.3992214  69.5296049  52.0240688  80.1056767  70.0266457
   8.4996990  24.4250709  37.8258431   8.5018066  23.4680254  37.8429138
   8.7333158  24.6490700  36.9250214  51.7102146  71.2352943  62.3364925
  51.8934870  71.7857504  63.0978346  52.0080709  70.3629351  62.5943851
  48.8286352  69.7337675  64.6852493  48.6537170  68.8910294  65.1040888
  48.8915491  69.5290804  63.7523079  62.7205038  80.7900620  76.4248705
  63.0346203  80.3453827  75.6375837  62.4808168  80.0806618  77.0211315
  42.8338579  44.3879969   6.5190613  42.1733859  44.1980059   5.8528053
  43.6591008  44.4223291   6.0353005  63.9776564  70.6714153  47.1758461
  64.7004890  71.2090492  46.8522835  64.0626621  70.7041502  48.1287003
  52.1794370  32.2143824   7.7046978  51.7459062  33.0152590   7.9994499
  52.1083883  32.2408373   6.7505085   8.9040568   2.2930812  46.7258692
   9.2001345   1.6688632  46.0633612   8.7996390   3.1166267  46.2493038
  76.6723013  91.5828514  85.2662373  77.0557785  92.2014332  84.6445179
  76.5389585  92.0959187  86.0632324 100.3279877  62.6398659  67.2040224
  99.4850159  63.0433607  66.9970751 100.1204300  61.9746113  67.8602171
  85.9100056  58.0940819  24.1169786  85.1832771  57.9040241  23.5237122
  85.6299400  57.7385044  24.9604011  85.7921696  51.1598921  82.6137066
  85.8228970  51.2349749  81.6599464  85.9112549  52.0559835  82.9284573
  72.3240662  67.1315861  28.1680870  72.9111004  66.7087221  28.7948298
  71.4500952  67.0106077  28.5392642  69.8845387  94.5592594  64.4480753
  69.5627308  94.7662449  65.3254747  69.4485712  95.1922417  63.8775492
  97.4988461  87.2535229  73.1320000  97.9418087  87.9022598  73.6789513
  97.1276188  87.7616882  72.4107599   2.7604297  10.7250053  11.3366043
   1.9447330  10.8847076  10.8618843   2.6222614   9.8850758  11.7743885
 103.6928988   0.8190822  87.8673458 103.9256574   0.4054737  87.0360947
 103.9410973   0.1767826  88.5322380  82.5218201  55.5480576  78.8153315
  82.4627399  54.8337460  79.4497585  83.4512234  55.7763624  78.7975597
  68.4086800  61.3721943  28.9876842  68.8364029  60.6979656  29.5156026
  67.9864216  60.8885002  28.2777762 107.6899719  60.8924770  76.4577436
 106.8243599  60.7376814  76.8358755 107.5159931  61.1085320  75.5416203
  11.8274691  12.1843624  85.9183407  12.5617793  11.8255901  86.4166355
  11.8420794  11.7037486  85.0906754  31.0472921  54.4966585   1.3197529
  30.4184488  55.1018698   1.7128384  31.8205121  55.0336821   1.1466610
  10.5927470  35.0798225  88.2607746  10.7642653  36.0153102  88.3688164
  11.2500670  34.7871494  87.6294899  41.8074610  13.8773631  45.9097719
  42.4779513  14.5598888  45.9385824  41.0547259  14.2619514  46.3588858
  71.6378498 103.1703281  44.5868731  71.2969685 103.5308838  45.4054260
  70.9134483 103.2565022  43.9671564  63.9607048  76.1495066  60.2078295
  64.7800636  76.0782528  60.6975365  64.0455723  76.9666386  59.7165823
  30.7135299  64.5961363   5.3405010  31.5458730  64.4379885   5.7859528
  30.2108148  63.7936575   5.4802715  67.1311140 100.9761333  74.2645311
  67.8185368 100.4267597  73.8878727  66.5336895 100.3576279  74.6849775
  70.1276779  75.9080791  83.9754868  69.2195129  75.7384348  84.2258739
  70.1706553  76.8571663  83.8587761  68.4408092  58.9891148  91.0609436
  68.7444210  58.4142780  91.7635155  69.2224646  59.4714355  90.7914734
  93.2166481  99.6101856  59.3982649  93.5544872  98.7841320  59.0522575
  92.8090572  99.3722153  60.2310133  93.5341740  85.1545238  53.9121532
  93.1578732  84.3347454  53.5918665  93.4699917  85.0913239  54.8651075
 105.2382232  21.6459655  74.1903830 104.4556046  21.3759231  74.6708155
 105.2444316  22.6006126  74.2598915 104.6983624  91.7859936  76.2968826
 104.9632549  92.7054024  76.2692547 103.9661026  91.7291641  75.6830406
  32.1394541   8.4901618  43.9806795  32.1130278   9.2101669  43.3505011
  32.9742911   8.6006832  44.4357347  74.4039682   7.8112823  18.5391342
  75.2537397   7.9554111  18.9554798  74.5802549   7.8895361  17.6015675
  91.5939617  76.4924860  69.8250341  92.0081043  75.9580421  70.5025959
  91.5623951  75.9227037  69.0565395  65.6426525  79.7916651  54.1206837
  65.0109816  79.1236639  53.8542366  66.1381531  79.3831873  54.8305130
  42.0278025  76.2707806  64.8497963  42.2120428  76.6574621  65.7058144
  41.0774660  76.3371086  64.7565556  66.6430187  91.4959526  67.0554304
  66.9963074  91.0578823  66.2811518  65.7844353  91.0938644  67.1872711
  66.6562462  80.4142094  77.6241112  66.5250492  80.9740162  78.3893776
  67.3324919  80.8602142  77.1142054  45.7419207 106.1387665   2.5424874
  45.9175684 107.0746310   2.6401341  45.1857665 105.9201558   3.2902348
  79.1955566  89.7880077  29.2697525  79.9222374  89.2734241  28.9185119
  79.2798996  89.7043419  30.2195501  54.8292592  50.7749731   5.8781540
  54.2563394  50.7116396   5.1139557  54.4916490  50.1169283   6.4857971
  12.9244472  84.7607040  80.4522038  13.4384872  85.5649281  80.3799438
  12.2496940  84.8464203  79.7787094  60.3466177  83.9452839  65.1360083
  59.8019075  83.9004612  65.9218311  59.7562504  83.7064552  64.4214106
  58.6057377  96.6175461  79.8491240  58.8868523  95.7066250  79.9352455
  59.3717527  97.0725441  79.4992208  98.7301159  74.3950987  69.1905403
  98.2875824  74.1470480  70.0022459  99.2853737  73.6440134  68.9812946
 109.2097998  28.5043907  71.5430546 108.2594682  28.4037780  71.5976286
 109.3901826  28.5706043  70.6053400  66.3487148  73.3178329  66.2270546
  65.9891605  73.0318546  65.3873110  66.9237185  72.6020241  66.4976406
  64.4299936  91.3339424  52.6310444  64.6813011  91.0592365  51.7492199
  65.2599239  91.5248680  53.0680704  36.5457109  11.6433174   1.9276821
  37.3332885  11.1335451   2.1176541  35.9820178  11.0411674   1.4419853
  94.6853065 102.8584194  77.4027252  93.9725399 102.8249454  76.7646980
  94.5931339 103.7149048  77.8200722 104.0648651  91.9073582  79.2653179
 103.1499195  92.1657562  79.1541767 104.4369602  91.9589901  78.3849144
 112.7745819 105.5679989  57.8461647 113.1989193 105.3269958  58.6696196
 113.4021091 106.1472988  57.4139166  81.4789677 102.9134274  55.9754944
  81.5231800 103.6990166  56.5205956  80.5832291 102.9061031  55.6381178
  76.2191963  89.8024940  83.1659603  76.4105463  90.2603531  83.9844894
  75.4878139  89.2235374  83.3807087  93.2542515  86.8751717  79.6940136
  93.7569427  87.5622749  79.2564964  92.5185394  86.7051888  79.1057539
  68.0025578  95.1728249  47.8629875  67.9923534  95.4456520  46.9455528
  67.1795034  95.5054855  48.2209635  82.1370983  59.8316431  65.6069613
  82.3285484  59.0605593  65.0730991  81.2727833  60.1184797  65.3121424
  61.3140917  97.6838779  81.6139698  60.9201956  96.8140602  81.6809559
  61.0277843  98.1381226  82.4063873  63.0672315  12.4610216   4.9401867
  63.0697397  13.4171421   4.8947537  63.9913228  12.2222692   5.0128948
   2.5710632  70.1898479  65.6800270   3.1946708  70.8982706  65.8396626
   2.4504520  70.1863718  64.7304630  81.7159843  99.1397572  61.9797277
  81.6555691  98.9154530  61.0511446  82.1676826  98.3952332  62.3770761
   4.6303847  14.3141746  32.3896480   4.4326642  14.9658965  33.0622602
   4.6675112  13.4837818  32.8643036   2.4166634  12.7323245  84.0034103
   1.7067006  13.1114959  84.5214939   2.7580836  12.0229720  84.5479202
  75.2282095 106.0110474  81.7824459  74.9935246 105.2621460  81.2344551
  74.4318390 106.2049866  82.2768307  92.2319317 106.3701248  51.1718750
  92.6220512 105.6713486  51.6970015  91.6375446 105.9169865  50.5738783
  67.2182372  18.8796901  90.9164238  66.5701773  19.4464111  90.4980087
  66.7234614  18.3996295  91.5804863  77.3751879  92.2144222  49.9790764
  77.6092100  93.0231380  49.5236301  76.4644909  92.3436451  50.2439642
  73.8498735  95.1639175  55.8012772  74.0988922  94.3066788  55.4557753
  74.2637920  95.2041149  56.6634178  33.0618909  29.8626596  39.4581330
  33.2943300  30.6762106  39.0105354  33.8521770  29.3253118  39.4040501
  57.0601845  79.1925049  59.6396303  57.9023504  79.2771149  59.1926098
  57.0203161  79.9518061  60.2210951 103.8302803  63.4581757  72.7562141
 103.9638710  63.2495356  71.8316317 104.3759155  64.2296648  72.9089212
 102.6371956  57.4168396  62.4988174 101.6886616  57.4611521  62.6194429
 102.7554226  56.8512154  61.7357159  13.8662674  80.5337524  64.4999838
  13.9785339  80.4438686  63.5536480  13.5240985  81.4199448  64.6174812
 106.8308258  86.1290073  46.3222790 106.2832546  86.2577057  47.0967722
 106.2146664  85.8871746  45.6308317  87.2682190  65.8202124  62.5340271
  87.5914478  65.7405138  63.4314680  86.7306328  65.0391769  62.4028206
  82.8878117  79.2953205  29.5025682  82.7808762  79.2271948  30.4513335
  83.0977440  80.2167892  29.3507528  73.3158064  73.1561518  44.1433382
  72.4244404  73.0384970  43.8149357  73.4553385  74.1029215  44.1235352
  75.6804800  98.6622334  58.2371902  75.0189018  99.2757320  57.9175520
  76.1447001  99.1453266  58.9208269   7.8029349   2.5950813  63.1229591
   6.8866064   2.8043174  63.3040476   8.0711844   3.2403182  62.4687815
  57.3876336  27.6283819   4.0260040  57.1973947  28.3557398   4.6184647
  57.9935888  27.9958040   3.3825314  28.0256083   5.5339145  46.6358042
  27.1748450   5.9202957  46.4280701  28.6551764   6.2339782  46.4632130
  92.5114822  95.2069759  73.9714384  92.6059532  94.3518162  74.3909788
  93.3261776  95.3254986  73.4831238  74.2724991  85.1996803  90.5220890
  73.6576748  84.7896194  89.9137497  74.8078680  84.4753742  90.8460999
  28.1193068  15.3232955  36.8439960  27.2419455  15.1538753  37.1871734
  28.4743597  14.4547271  36.6548920  66.6083717  85.3138733  63.7861490
  65.6525135  85.3632355  63.7745333  66.8694782  85.5140305  62.8872633
  92.2332478  89.8988533  37.1717477  92.5827885  90.7431698  36.8867970
  91.4194298  90.1174736  37.6257777  80.3431416  97.8162670  57.0081377
  80.6507778  98.4541321  56.3641596  79.4336367  98.0637646  57.1748161
  43.8321069  49.4757444   3.5231602  43.8193467  48.7817175   2.8640759
  44.2696527  49.0814764   4.2777073  13.5159018   9.2825698  32.5434542
  12.8731921   9.9762058  32.6918817  14.0193560   9.2445182  33.3566713
  64.9846029  65.0022793  83.0465698  64.8460007  65.3423452  82.1626186
  64.4607019  64.2018843  83.0801582  90.6322385   1.8639278  51.0123014
  89.9849273   1.1700725  51.1379671  91.3671542   1.6098213  51.5704823
  85.5925179  61.3880062  81.0172462  85.3687859  62.0996761  80.4174900
  86.2600613  61.7609596  81.5930271  70.7226753  89.6365929  70.2260160
  71.5572262  90.0549316  70.4375505  70.4970837  89.9764633  69.3600893
  77.0960426  95.1996231  66.9011402  76.8884087  96.0227871  67.3433256
  76.7618322  95.3146553  66.0115910  39.3439174  93.7953377  34.0357399
  38.5817575  93.4074879  33.6057186  39.1257024  93.7820244  34.9676394
 107.1623135 103.9146423  50.8398008 107.7447701 104.5287418  50.3927612
 107.6642418 103.6178207  51.5988731  61.4274359  98.0170631  49.5087862
  61.8579769  97.3518753  50.0458145  60.6215143  97.5972557  49.2079973
  93.6382345  22.5931866  10.1442921  94.5405057  22.2931654  10.0341522
  93.7219003  23.4892256  10.4703915  23.0822470   4.7105884  91.5859795
  23.2028010   3.7632942  91.6518879  23.3887770   5.0501155  92.4268055
  15.7305624   0.6060028  60.0443459  16.4892104   0.5043697  59.4695807
  15.0676348   0.0252532  59.6708870  78.2956123 100.2139664  62.7630568
  78.4677076  99.6653843  63.5283518  79.1639376 100.4302788  62.4232817
  19.2807724  67.6913261  68.1681967  19.2674591  66.7608881  67.9438210
  19.7305824  68.1084824  67.4334335 109.2709590  18.6999320  63.5189819
 110.1024819  18.2514381  63.3651829 108.6305190  18.1958293  63.0170345
 101.7483378  12.6161384  83.8608170 102.3600865  12.7767276  83.1423378
 101.6838361  11.6624736  83.9118385  99.4672489  75.2530003  74.9404955
 100.3345871  75.5281639  74.6434593  98.8643837  75.6255198  74.2970514
  99.1845132  11.4974880  29.9521422  99.1042806  12.2324085  30.5601597
  98.9308024  10.7316589  30.4672742 102.1453762  98.3357430  40.4692650
 102.7687645  98.1176090  39.7764158 101.6645527  97.5225830  40.6235552
  86.7691231  87.9411697  64.6415663  86.8584442  87.0067024  64.4544125
  87.6046371  88.3208466  64.3695211  23.0862238  12.7213668  88.5374451
  22.6722147  12.8403091  89.3922424  22.3865225  12.3857879  87.9770470
  83.0417633  90.4961014  62.3586321  83.9703083  90.7015133  62.4675179
  82.6393318  90.7606602  63.1858492  61.1631158  69.6579439   5.2045929
  61.1343149  70.3379518   4.5315468  61.2819818  70.1373655   6.0245049
  11.0365488  16.9881057  59.9838209  10.7052424  17.8734111  60.1344967
  11.8729021  16.9630050  60.4487038   4.4230940  36.2693691  54.6077299
   4.7299674  35.8211040  55.3958416   3.5848048  35.8533573  54.4066238
  94.7041988  79.2653799  56.1520767  95.4733849  78.7291908  56.3446522
  94.9131966  80.1244831  56.5188074  85.6602097  96.0731125  14.4471657
  85.4737759  95.5027580  13.7013984  86.4850330  95.7414913  14.8020136
  94.8890639  16.4615917  50.7721996  94.2802859  16.9396305  51.3353205
  95.6918097  16.3951396  51.2893200  37.9822352   2.9024791  74.2965078
  38.3659079   3.7724876  74.1864491  38.1596377   2.4559974  73.4686136
  23.4234575  53.7406809  17.3273766  24.1289666  53.1369192  17.5596630
  23.4676173  53.8049681  16.3733589  62.9138517  91.0356331  83.1697464
  62.7342939  90.4842186  83.9312744  63.4506083  90.4868793  82.5979042
  55.6406355  77.4301100  65.1740885  56.3613605  77.7060986  64.6078587
  54.9886227  78.1256008  65.0880575  31.2939455  13.4033107  89.5024300
  31.3204577  13.4533786  88.5469151  31.7896559  14.1676521  89.7961712
   0.7395794  22.1859455  44.5003033   0.7448914  21.5484619  43.7862825
   0.0256112  22.7847576  44.2814445  49.7943640 105.5789089  42.7863503
  49.8058224 105.0255299  43.5672998  50.7014227 105.8668041  42.6834774
  50.4265833  98.0121803  59.8460293  50.8563805  97.4856567  60.5200291
  49.8473358  98.5982513  60.3330898 110.0959493   9.5734500  45.0459862
 109.9569703   9.4335460  44.1093206 109.7689057  10.4585075  45.2070808
  66.3212824  96.2105370  56.3286209  66.0943556  97.1072292  56.0822821
  65.4807854  95.7548332  56.3747740   9.7700884   1.5590190  49.1120815
  10.5816748   2.0628833  49.1726160   9.4110587   1.7853927  48.2541227
  68.5848427 103.3094311  84.8704052  68.4803629 102.4168587  85.1999950
  69.4235277 103.2978058  84.4092083  98.1551838  60.3708506  50.1568222
  98.7288952  60.1344442  49.4279861  98.0634212  59.5625782  50.6613159
  92.4112034  80.6701088  90.8465958  92.9036999  81.4681721  91.0383701
  93.0058098  80.1444912  90.3114319 108.2474804  74.2547178  73.6521292
 107.5697136  73.7197924  74.0653229 109.0121460  74.1520834  74.2186880
  51.5048602 101.1550601   1.3606178  51.8023493 102.0648320   1.3671791
  52.3068335 100.6401808   1.4498913  63.7860298 101.6987038  48.8528585
  64.4700241 101.7648029  48.1865120  62.9666519 101.7623901  48.3621502
  10.8582832  85.6468868  41.2847996  10.3660347  84.9951744  40.7856131
  10.6059887  86.4853859  40.8981466  96.7324162   6.2258052  70.5277348
  96.9803286   5.8388519  69.6880722  97.5376273   6.6283988  70.8529806
 110.5587149  10.9142875  81.6062546 110.1398326  11.3365364  82.3562336
 109.8688365  10.8618354  80.9447765  87.7050304 100.2137566  50.7630444
  87.4557781 100.9246254  51.3536167  87.1606541 100.3452778  49.9867773
  94.3062401  60.7162619  83.4511662  94.8657608  61.0227537  82.7375603
  93.4334373  60.6570673  83.0626583  45.1786092  22.5465185  17.3968613
  45.9436372  23.1216509  17.4109089  44.8238996  22.6413090  16.5128815
  72.0945549  99.9864864  76.3607740  72.3768425 100.8604050  76.0909319
  71.3953447 100.1457691  76.9947815  67.7272224  76.0872984  66.2480640
  67.2691250  75.2736092  66.0376072  68.5794163  75.9997177  65.8210754
  45.1887321 100.7769871  41.7745447  45.8720160 100.1087189  41.7218637
  45.6571770 101.5814590  41.9973040  90.1728058  50.1007938  48.6515617
  90.4876995  50.8704042  49.1256666  90.9571648  49.7324848  48.2449150
 108.6602783  74.6270847  63.7470818 108.5822964  75.0900459  64.5812368
 108.4881878  75.2963305  63.0847168  67.2073415  38.9804060   5.9329903
  67.7651647  39.5839388   6.4237129  66.3364175  39.0967638   6.3127052
  75.0504589  91.5639400  62.1810770  75.9156227  91.4688301  61.7827320
  74.4398928  91.4940357  61.4472198 102.4859000  10.7473373  72.5877476
 102.7262784  11.6109275  72.9233837 101.7528821  10.9159755  71.9957352
   3.9069988  98.0101871  52.9785395   3.2156231  98.4794903  52.5116396
   3.5142757  97.1666908  53.2032776  52.1185354   7.7634603  23.9918816
  53.0305627   7.6506550  24.2596733  51.6094449   7.4008972  24.7168743
  73.0222273 102.8764057  63.2224369  73.9466619 102.7680111  62.9990387
  72.5509024 102.5613022  62.4512053   8.3870366  22.5296909  13.0458653
   7.7210668  22.8467066  12.4357712   8.6724571  23.3125812  13.5168850
 111.6322136  94.6142578  41.7281055 111.8219280  95.2115250  42.4516439
 110.7002640  94.4158459  41.8193913  33.4097483   4.0308284  73.6891937
  33.9209750   3.3668517  74.1518211  34.0022280   4.7786617  73.6122131
  28.9854244  41.8067915   1.1491120  29.8766139  41.5612394   1.3975441
  28.6809781  42.3618681   1.8670475  21.2003710 103.4040911   5.1567566
  21.9995692 103.8987048   4.9754536  20.5353739 104.0737326   5.3167450
  52.3708010 105.0037384  61.8114614  52.2917175 104.1710758  62.2769165
  52.0592690 105.6581688  62.4366951 105.6060886  72.6874304  62.5894356
 105.0168800  73.3448362  62.9593992 105.8646107  72.1493244  63.3376646
  91.6593838  52.5869799  68.5719442  91.9052696  53.5089970  68.6471128
  90.7061958  52.5995970  68.4852791  69.2118883  95.8183479  43.8634157
  69.5837831  95.5695534  43.0172348  69.7627926  96.5411282  44.1639614
  74.1252279  82.8509712  43.1084156  74.0776682  83.7092018  43.5296297
  74.2026520  83.0464458  42.1745920  50.4800558  80.9963703  91.4216518
  50.3763437  81.5553188  90.6515598  51.2511253  80.4631138  91.2284660
  69.2859173 103.7080288  65.8044910  69.7203493 104.5605278  65.8317327
  69.4841623 103.3659267  64.9327707 112.7724648   3.0743694  42.1335554
 112.4271203   2.4894618  42.8079891 112.4646426   2.6975822  41.3092327
  13.7621596 105.8155186  11.2461483  14.2692759 105.2038462  10.7123673
  14.4143774 106.2547095  11.7920029 105.8080292  57.6904583  80.7375813
 106.1583900  58.4266424  80.2360821 106.5216064  57.0527697  80.7571602
 101.9923592 101.9929886  58.7036324 101.4056301 102.5934219  59.1634798
 101.5893650 101.1319447  58.8151741  19.7294047   5.4362583  56.6201591
  19.1042139   4.7259807  56.4756584  19.1877844   6.2229728  56.6830683
  55.5725002 103.6676502  59.3566656  55.6056643 103.9633942  58.4469080
  54.6620178 103.4039307  59.4897461   2.5150063  11.5812301  74.5073748
   2.8644278  12.3655986  74.9303532   2.4895623  10.9248351  75.2035952
  21.3861659  18.5754282  11.7756378  20.9396318  17.7410013  11.6322338
  22.2258094  18.3336813  12.1665203  63.9034510  86.0223103  34.7473979
  63.8931370  86.8401623  34.2501616  64.4973707  86.1937904  35.4782081
  49.2542553  65.8248186  59.5343590  49.9512863  66.4789248  59.5846462
  48.4535265  66.3128281  59.7264910   3.1493142   7.5656890  58.8113737
   3.2582142   7.5349044  57.8608894   2.2019913   7.5350189  58.9450359
  43.5041765  38.1602938  11.4245808  44.3996480  37.8761465  11.6079342
  42.9978040  37.3487455  11.3895905   6.1185839   9.5341205  33.4823990
   5.8467200  10.2669525  32.9298735   7.0734408   9.5956039  33.5090446
  39.2884687  21.1707098  23.2267868  38.3540490  20.9662373  23.1909668
  39.4041398  21.6163237  24.0660011  11.8488314  17.1999454  67.3650122
  11.5965655  17.3141288  66.4487410  12.6416590  16.6647338  67.3302507
   3.0876162   3.5860443  43.4714031   3.8632443   4.1425323  43.5417843
   2.3887541   4.0963840  43.8805151 107.1927071  56.4557219  52.1651983
 107.6551342  56.3735580  51.3311529 107.0028400  55.5538416  52.4236584
  95.3432178  58.1614971  84.2622662  96.2943649  58.1871986  84.1579151
  95.0162506  58.8099337  83.6386871   4.8060180 103.5939598  58.9338732
   4.2189838 102.8381252  58.9520884   5.5941917 103.2960701  59.3880606
   7.3994686  92.8694916  56.6327000   7.1799423  92.1592712  56.0296965
   6.7729999  93.5626411  56.4245796   2.8160049  91.0968971  67.6591349
   3.0271484  90.2921772  67.1857691   3.4569599  91.7346954  67.3450899
  69.6426582  78.7485123  77.0702934  70.4574203  78.9931297  76.6314840
  69.0543795  79.4868326  76.9120502  70.2361822  84.1188049  60.4640150
  71.0396433  84.0773678  60.9826326  70.3498554  84.8891926  59.9074030
  74.7039890  94.4242382  70.2296782  74.4264746  95.2251816  69.7850275
  73.9039469  94.0823650  70.6287861  22.4235442   0.4504585  86.5202713
  21.5000918   0.2619552  86.6874313  22.6775744   1.0468101  87.2245979
 111.8792344   8.4108734  85.0074196 111.9895507   7.5893306  84.5287514
 112.0878983   9.0910530  84.3670654  66.3049364  81.1225605  45.4704380
  65.8521652  81.0746765  44.6284533  66.9879532  81.7799759  45.3380489
  68.1564573  41.4881117  16.7922508  68.4492448  41.9247801  15.9923565
  67.8196481  40.6431181  16.4942848  42.7122977  10.5391025  36.1270976
  43.0585959  10.0330734  35.3920794  42.0895007  11.1463165  35.7275462
  67.8285456  78.2631207  35.5651259  67.2565031  79.0266514  35.4875517
  68.6251163  78.6012173  35.9742689  51.1198046   3.4947872  78.1311178
  51.2666895   3.6716842  79.0602922  51.9871237   3.5693263  77.7330828
  65.3664064  78.2464695  38.0427384  65.6996012  78.4982729  37.1814537
  64.8577881  77.4520969  37.8799200 106.0490036 101.7462826  83.8510132
 105.3543568 102.2037315  83.3772659 105.8522987 101.9028950  84.7745991
  70.2479935  86.7745113  69.1545200  70.9629154  87.2121620  68.6923790
  70.1626015  87.2578907  69.9762774  37.7106669  19.4204235  39.3934631
  37.8395274  20.3646278  39.3033433  37.1406844  19.3282794  40.1569128
  45.9636881  15.1776790  30.8030915  46.0337641  16.1135196  30.9915352
  46.7228224  14.9867916  30.2521729 109.7284985  91.3533401  89.8962593
 109.3236923  91.2500381  90.7574749 109.4214249  92.2059250  89.5879841
  18.2755091  11.9399166  71.4333344  18.4643176  11.8985652  70.4958534
  17.9510310  12.8295040  71.5732956  71.0124969  90.1394653  80.8685493
  71.5976191  90.4456806  81.5614414  70.2964592  89.7067356  81.3335800
  38.3434680  49.9955923  31.7263233  39.2693141  50.2366526  31.7567646
  37.8974012  50.6980116  32.1994698  97.0531178 103.6756325  54.7557783
  97.7961922 103.4382153  54.2010689  96.3414383 103.8517094  54.1403627
  96.3131286   6.4244079  76.0959864  96.8699075   6.8910884  76.7192316
  96.0152770   7.1008205  75.4877234  45.7038358  26.9580156   4.0548145
  46.0224393  26.8641359   4.9525368  46.2789777  26.3952238   3.5364544
  85.6615067 103.6652565  42.7805853  84.9631691 103.2873344  42.2460461
  86.0600948 102.9140091  43.2198906  84.4233418  84.8990917  80.6209755
  83.8662815  84.4997597  81.2891388  85.1654530  84.3001652  80.5386066
  92.6464176  70.8700609  80.7261658  92.5311279  71.5298986  80.0423813
  93.5918331  70.8397198  80.8727646  76.4292383  83.3059216  50.2428389
  75.5304623  83.4008026  49.9275255  76.9008780  84.0382099  49.8459244
  16.4530089   9.0388107  79.9694300  17.1910002   8.6126136  79.5335960
  16.8459227   9.4980525  80.7116890 103.2058716 104.3624020  57.8125095
 102.4397945 104.9343872  57.7656269 102.8558350 103.5154247  58.0888176
  73.2329082  96.5772438  40.9944201  72.7094889  97.1155167  40.4006767
  73.0265713  95.6762600  40.7456398  81.0888767 106.4667130  76.4783001
  80.5972862 107.2454548  76.2172842  80.6739521 105.7496643  75.9987974
  98.2300282  70.8571148  35.0894189  97.5338650  71.0657501  35.7123637
  99.0257263  71.2009525  35.4954624  66.4835882  97.1933651  63.9015675
  67.3922062  97.1720314  63.6012602  66.3443947  98.0986786  64.1795349
  64.6255830  52.2550470  12.6103508  65.0738576  52.9486639  13.0942738
  65.3152612  51.6254789  12.4000847  10.3206160  21.5572929  22.1502209
  10.0608828  22.4576377  22.3455477   9.8690226  21.3498592  21.3321352
  69.1667557  87.0522881  49.3871117  68.3198023  87.2580338  48.9914179
  69.1221046  87.4373817  50.2622938 112.1373558  83.3529186  78.2692528
 112.0486259  82.6333141  78.8941765 112.7170753  83.0095768  77.5893402
 111.6181851   3.5031700  35.3799725 110.7165719   3.3948421  35.6826067
 111.8390895   4.4071578  35.6041050  49.1226008   5.7522392  83.4140301
  49.6941378   5.0677585  83.0660915  48.5110190   5.9386253  82.7016640
  75.7062006 102.0491123  62.8188562  76.1173677 101.2327766  62.5346470
  76.3088179 102.7342129  62.5295115  88.1314564  65.2061272  81.8102932
  88.5818386  64.5243597  81.3117218  88.8241482  65.8181572  82.0589542
 109.7078800  99.9086285  55.0938177 109.4333363  99.3643856  54.3558073
 109.2532444  99.5352936  55.8489084  35.8395580  50.7755548   2.2177994
  35.1631025  50.2241117   1.8246662  36.2196258  51.2515051   1.4793884
  30.3428748   9.5946216  68.0851555  30.8171942   8.8773059  68.5055256
  29.4770815   9.2319583  67.8978157  56.0323048 100.8651352  84.8898411
  55.9747934 101.6506290  84.3458557  56.9675112 100.6635952  84.9214077
  19.9052145  13.3891868  87.0292568  20.5570509  13.3491229  86.3294411
  20.0314715  14.2515087  87.4250984   3.7875798   1.0052776  64.3033600
   3.3067753   0.1863098  64.1835690   3.7556221   1.1660385  65.2464247
 102.7957439  79.1613865  91.6585732 103.3450985  78.3936310  91.8166447
 102.9753399  79.4013453  90.7495117  50.7208061  82.3167896  54.2095041
  50.0983381  82.1709824  53.4971094  50.1747227  82.4021053  54.9910069
  33.3039286  26.6944599  45.2716160  33.7105563  27.5269222  45.5121946
  32.9901793  26.8306732  44.3776178 108.2080937  12.7002620  70.0556612
 108.7625409  13.1153678  69.3949747 108.8077975  12.1516609  70.5612564
  59.8749021  40.4613954  18.9790737  59.3241170  41.0043032  19.5430958
  59.9279359  40.9476835  18.1563103 103.5165882 100.7540417  37.8061604
 103.6011887 100.9249687  36.8681526 103.2533264 101.5949440  38.1800628
  22.0210268  51.6413783  38.0830359  22.8600123  51.9694995  38.4065723
  21.3672736  52.0684623  38.6366105  28.6861613  47.0130443  77.6748037
  28.6467936  46.3504695  76.9851160  27.9771712  46.7780685  78.2734251
  59.2753839  97.6455688  17.4493206  60.0571918  97.8013325  17.9791760
  59.0303040  96.7410278  17.6441801  33.6901476   3.8898181  66.7572355
  32.9615309   3.3353042  67.0362949  33.3613207   4.3453121  65.9822321
  21.7082789  24.2607211  53.0888796  22.6309874  24.2835140  52.8352737
  21.7111685  23.8861274  53.9697409 107.9060651   1.1507892  46.2299204
 108.7749339   0.7860279  46.3980103 107.4333669   1.0330390  47.0538902
  76.8276501  78.2458782  75.2610111  76.9717646  77.7431154  76.0626936
  77.3064137  79.0627861  75.4012823  77.7789307  58.5738468  91.6790485
  77.9642868  57.6607895  91.4594936  78.6407328  58.9662981  91.8187428
 100.0435543  90.8555126  82.5450802 100.6015491  90.1710033  82.1758747
 100.6424332  91.4072227  83.0482578  61.8047907  12.3443889  81.2534714
  60.9994700  11.8359947  81.1574650  61.5066435  13.2235622  81.4867115
 112.4228668  84.8846340  55.4032898 112.3480034  84.2710686  56.1341524
 112.9537106  84.4215679  54.7552204  71.9323018  83.9039976  10.5023873
  72.8122285  83.9448339  10.8769428  71.4291623  84.5468695  11.0021889
  44.3206838  55.9612352  19.6148979  43.9902833  55.3443224  20.2679646
  43.8409951  55.7436735  18.8156521  51.1177447  17.7852439  90.3636169
  50.6001856  18.2407760  91.0275841  51.1225989  18.3802986  89.6138668
  97.8034115  95.9069729  70.0617266  98.2707310  95.2225399  70.5407000
  98.0593777  96.7206478  70.4960537  74.1871503  45.0724108  19.6115410
  73.5468915  44.5003874  19.1883576  75.0221017  44.8386366  19.2060387
  90.0113443  48.8553411  20.3281986  90.7845739  48.5428602  19.8583901
  89.4631627  49.2511923  19.6506798  41.9329789  68.7358457  16.9334232
  41.4016441  68.1801016  16.3632786  42.2333148  69.4447405  16.3646614
   1.3232520  22.5727748  73.2287931   1.1472466  22.8178596  72.3203945
   1.9839671  23.2000636  73.5223913  34.1237261  11.1814880  55.1478481
  34.2670634  11.8811225  54.5105124  34.9632933  11.0927390  55.5989504
  14.7961428   3.5672187  53.9318752  15.6078436   3.3976936  53.4537125
  14.9594309   3.2237720  54.8102903  32.7570203  11.5706570   1.8253529
  33.0148509  10.8982546   2.4559414  32.7683261  11.1227114   0.9795105
  86.3191986  90.9402657  87.3405743  86.7635918  90.8564186  86.4969444
  85.6786156  91.6385841  87.2054863  97.8955222   6.6463851  84.5509624
  97.4567700   6.8546104  83.7261105  97.1895696   6.6156577  85.1966572
  18.0158522   6.2199592  78.2883835  17.7063658   6.5155219  79.1445923
  18.9302828   5.9778118  78.4347391  92.6622582   0.5453300  82.3561192
  93.4276820   0.3564739  82.8989697  92.7927066   0.0195598  81.5669537
 110.2026749  97.4480534  75.5419445 109.7904873  96.5981579  75.6969166
 109.7333908  98.0506134  76.1189461  49.2309526  73.3983595  15.1490223
  49.7511915  73.3402903  14.3476402  49.3011049  74.3154127  15.4142010
  79.9465609 100.7066727  65.8760786  79.5879602  99.8192501  65.8650732
  80.1872635 100.8790398  64.9658155  26.3578513  12.6230049  51.2304735
  26.0202029  13.5170459  51.1765575  25.5982974  12.0944881  51.4753675
 107.1302223 101.0842800  53.2617617 107.3551750 102.0145321  53.2777548
 106.6067505 100.9508324  54.0519571  95.1831532  85.8824921  49.9352360
  95.8849144  85.9242344  49.2856073  95.1211929  86.7738724  50.2784920
 110.1790714  73.8133001  89.0302944 109.6379471  73.0690622  89.2939854
 111.0672665  73.4593868  88.9846516  12.1590759 103.2892609  71.9932795
  12.8669407 103.9163780  71.8453217  12.1874382 103.1135654  72.9337883
  55.8259489  13.3893871  56.8240404  55.1441672  12.8473472  56.4270353
  56.5536215  12.7862167  56.9753790  33.0942824  16.0437297  90.2777100
  32.1688940  16.2757587  90.3554440  33.5564711  16.8800449  90.3342628
 111.6182423   0.3756904  65.4835224 110.7017184   0.1020336  65.5200243
 111.5845729   1.2877464  65.1949978  85.9348489  30.2744865  75.8554363
  86.8849707  30.1626396  75.8239031  85.6236029  29.5336341  76.3755322
  75.5445623 102.5005341  39.6659374  75.6876612 103.4304047  39.4896317
  75.2674007 102.1371651  38.8248777  87.6395416  91.2138176  46.8957329
  88.4213638  90.9567070  47.3844957  87.4568367  92.1066189  47.1885729
  21.7350437 103.2016182  19.7601485  22.0943214 102.3622704  19.4726837
  22.4638988 103.8161469  19.6743262  87.2885990  62.8628206  60.4676580
  87.0508099  63.2487631  59.6246052  86.5093422  62.3764133  60.7367182
  45.1303198  15.5418205  58.6115170  44.9607851  16.1555194  57.8967714
  45.7318785  14.8982906  58.2370281   4.6616794  74.3839836  92.0650673
   4.8443843  74.5216227  91.1355972   3.9449550  74.9876738  92.2602367
  73.7236932  53.4085924   1.3959229  73.9382127  53.6871416   2.2862160
  72.9627183  52.8374273   1.5004742 101.1234570  55.0496244  73.7576008
 101.4726639  55.5176163  74.5160675 101.2110233  54.1242075  73.9860249
  59.5714855  87.6822948  60.8205938  59.4675684  88.4427071  61.3926172
  58.7424564  87.2099686  60.8970785 102.3436832 104.6875477  67.1987963
 103.2318401 104.4465828  67.4621296 101.8317699 103.8883972  67.3234558
  16.0970976   5.3689765  76.5022135  15.4152968   5.8716106  76.9480181
  16.8820097   5.5074119  77.0322943  89.2542839  90.7297039  82.0682240
  88.4625530  90.2719021  82.3507309  89.5333862  91.2235832  82.8392029
  34.1430524   1.2652285  19.6548474  34.9100450   1.6525919  20.0766384
  33.7075046   0.7758600  20.3527367  82.1263218  69.8718786  61.1063194
  81.8542099  69.0255594  60.7514429  82.3362064  69.6910954  62.0225573
  67.4842119  64.1917038  48.0117941  66.7042828  64.5027637  47.5522470
  68.2160282  64.4999981  47.4773502  71.1164188  79.8214865  58.2717848
  71.4477730  78.9970922  58.6278963  70.9118795  79.6226740  57.3580742
 107.9982806   0.6739330  85.0142479 108.0887366   0.5577754  84.0684414
 107.0530558   0.6971263  85.1633930  39.2896559  27.0567893  42.5630474
  38.9574149  26.1916637  42.3234510  38.5381987  27.6399803  42.4561357
  47.7290395  37.5645906   5.6538021  48.3719018  37.9828245   5.0810635
  47.4832586  36.7626459   5.1926052  98.0134488   3.8805293  65.5175161
  98.1028224   2.9755401  65.2187681  97.0686341   4.0180301  65.5857468
  82.3460960  92.1585941  73.9549637  81.7504025  92.5003147  73.2881689
  82.2770405  92.7805996  74.6792412   4.4332553  92.4444485   7.4332720
   4.2965747  91.7081165   8.0293995   3.7281181  93.0567360   7.6433098
  65.4439309  85.5042345   8.2634365  65.4238275  84.7825415   7.6349556
  65.8382371  85.1263410   9.0495407  74.2216733  51.9281752  16.3814556
  73.7198785  51.2702543  16.8626702  74.9170640  52.1881849  16.9856560
  46.7162039  31.4902400  68.6748648  47.0446207  32.2530555  69.1507578
  47.4757101  31.1636733  68.1924343  58.1878188  21.8214511  91.5802765
  57.5278475  21.2843131  91.1419296  57.7053740  22.5876426  91.8907833
   9.1377165   2.5329017  73.4165859   8.5468199   3.0004501  74.0068960
   9.6988203   2.0187187  73.9971209  15.7425692   6.3039684  88.5138607
  15.6294348   7.2117423  88.7956142  15.9839728   6.3683032  87.5898361
  72.2744703  81.4091587  74.1690350  72.9685450  81.8444920  73.6740923
  72.2524643  81.8706799  75.0073338 103.4582424  71.3288832  56.2270594
 104.2079067  70.7365084  56.2847710 103.0174065  71.0789013  55.4150200
  75.5312824  67.9023743  79.9963140  74.7033691  68.0759287  80.4442787
  75.9505367  67.2219038  80.5230236  31.7484190   9.7684192  61.7410755
  32.2664454   8.9757156  61.8807697  32.1475031  10.4200267  62.3175859
 104.5504093 106.3299561  39.2780089 105.4910183 106.1652565  39.3441153
 104.2777157 105.8505535  38.4956765  87.2804070  88.4478760  75.4336500
  86.3722992  88.1462288  75.4580641  87.3299122  89.1143417  76.1189175
  23.2481005  10.7293891  58.4765053  23.8618472  11.2693023  57.9784775
  23.1116393   9.9556064  57.9298067  71.6806459  85.5039597  52.5467730
  71.7927217  84.7765732  51.9347429  70.7955885  85.3910923  52.8934288
 102.5234985  69.6079206  53.6986876 101.8380928  69.3179464  54.3006563
 102.1937084  69.3759012  52.8305626  80.6097889 106.0810184  52.9192066
  80.2919674 106.6979599  52.2599554  80.5207920 106.5500927  53.7488365
  80.9399700  72.9336214  63.3104372  80.5396938  72.8315163  64.1739082
  81.4955425  72.1605110  63.2110548  93.3735371  99.8926926  71.6649151
  94.0429783  99.2119026  71.7327404  92.5444031  99.4232845  71.7566967
  92.1862176  88.1662828  31.6577923  92.6755670  88.7229139  31.0520470
  91.2819055  88.2115061  31.3472950 108.9238358  72.6620626  71.6556263
 109.0291023  73.2818031  72.3774767 109.1419792  73.1673002  70.8724403
  12.3200180  80.2155304  49.1994190  12.3397209  80.2039146  48.2424927
  11.4270355  79.9538517  49.4237852  14.0389349   4.6307754  84.4223499
  14.5773985   3.8929843  84.7086239  13.1885436   4.2416763  84.2182446
 113.0630160  13.3856105  91.1083508 112.5516559  14.1687583  90.9048271
 113.6025191  13.6397170  91.8570805  26.3655426  94.4607067  79.2302084
  26.6178753  94.1711807  78.3534336  25.4843856  94.1080761  79.3545341
  70.6035948 100.4942799  84.6095753  69.7194195 100.2863026  84.3075752
  71.1576414  99.8254013  84.2072392  56.8944407  85.6129074  67.5332642
  57.5527239  86.0960007  67.0337486  57.0055819  85.9179688  68.4337187
  86.8537954  47.2421152  19.4646179  87.0751622  46.6109926  20.1493847
  86.8217996  48.0850393  19.9170410  70.5607677  10.8000373  75.6260204
  70.1152588  10.6731605  74.7883749  69.8641492  11.0526084  76.2319613
  65.9962034  75.5492735  46.0807037  66.3501835  76.3093519  46.5424490
  65.1685762  75.8573818  45.7114744  85.3049374  77.1339512  62.1179819
  84.8117638  77.8055668  62.5890875  84.6633148  76.4462852  61.9400072
   2.9066040 100.5763912  65.7625151   2.0008232 100.8061028  65.5550718
   3.0162384  99.6929550  65.4107332  52.3782539  99.1316414  38.2564449
  51.8044615  99.3793011  37.5314188  51.9298077  99.4547653  39.0379310
  24.7324374  10.5883026  51.6970205  24.9933531  10.2676296  52.5603437
  23.9781001  10.0491809  51.4591980  30.5700401  41.2107450  14.4378292
  31.0377029  41.1828978  13.6031162  29.9747184  40.4619581  14.4039261
  99.7716522 100.5152893  68.5015297  99.3872738 100.9259605  67.7270412
  99.8971176 101.2368298  69.1178703   5.3685381  16.8556022  67.2205400
   5.3835013  17.3027610  66.3743353   6.2719824  16.9041252  67.5330782
  27.1186545   4.8703956  43.3666897  28.0527594   5.0484085  43.4761810
  26.6849806   5.5124950  43.9286995  18.0950500 101.1421013  81.7074776
  17.4238445 101.5593815  82.2474670  18.8370945 101.0199547  82.2996521
  89.6779633 102.1059799  38.5119724  90.5132961 101.6523266  38.3995175
  89.5767307 102.1899128  39.4600964 110.0501633  21.0853195  70.5134487
 109.4363690  21.5758895  69.9667931 109.5654584  20.3022289  70.7743311
  96.6547585  96.4790726  67.8221798  96.8799973  96.3258076  68.7397909
  97.4911118  96.6747284  67.3997259  11.8526461  13.8687515  51.5704918
  11.9221880  14.6624851  52.1009588  12.2322466  14.1111373  50.7258749
  32.0605281  69.4231874   1.6239178  31.6131976  70.2693922   1.6317188
  31.9344476  69.0938074   0.7340634  22.5441172   7.4182510  72.9360580
  21.7737677   7.9573535  72.7567291  22.2388651   6.5184020  72.8206158
  39.7466186  77.7760393   2.2144901  39.4476512  78.5625917   2.6707661
  39.8828176  78.0605776   1.3107598  76.0695314  87.1211147  55.1573372
  76.0956764  86.2713146  55.5970860  76.7303705  87.0545578  54.4680691
  95.9217504  61.2217695   0.7494938  95.9208349  62.0620806   1.2078678
  96.4857248  60.6597311   1.2807953  56.8962625  49.7620470   7.7723610
  56.0045675  49.4782907   7.9738438  57.1165994  49.3023283   6.9622051
  68.9640331  96.9282722  62.8830385  69.0706158  97.6672077  63.4820843
  69.0301275  97.3159599  62.0103598  55.1364088 101.8263054  63.5866690
  55.4088926 100.9288311  63.7777853  55.7876873 102.1465874  62.9625845
  45.5310919  21.0440158  28.7363458  45.7572558  20.8926677  27.8186440
  45.5136588  21.9969654  28.8247108  64.8377993  35.1215457  75.3734827
  65.2447417  34.7645568  74.5840597  63.8983729  35.0030231  75.2332306
  14.6907401  44.3701887  68.8165855  13.9547062  44.1788340  69.3978500
  14.2975163  44.8326349  68.0764818  10.9110736  89.2724598  67.2071075
  11.3592385  90.0492883  67.5416517  10.7686996  89.4591046  66.2791395
  94.9973235  65.0029612  92.2494602  95.9052322  64.7105456  92.1692848
  95.0477538  65.7980919  92.7799892  32.7813387  10.2151191  58.7084675
  32.6420689  10.1552272  59.6535873  32.9741812   9.3175757  58.4374332
  40.4141283  13.5530365  52.0151281  39.5562601  13.3693230  52.3979378
  40.2278471  13.7648892  51.1004448  35.6339049   6.9161260  80.0759220
  35.6166410   6.9954085  79.1221619  36.5077400   6.5784311  80.2724075
  13.8699710   3.2463813  77.8092098  14.6744478   2.9313239  77.3971558
  14.0642977   4.1513798  78.0530262  86.2435112  80.3529788  72.5599861
  85.6552038  80.9224892  73.0557537  86.1660037  79.4993854  72.9861307
 100.3075430 106.7567635  51.2473249 100.8949397 106.9617786  51.9747639
 100.1616881 105.8132269  51.3158560  12.5655030  89.0944410  56.0293865
  12.9910373  89.4188548  55.2357197  12.4411058  89.8742843  56.5703154
   6.8161773  98.4703756  25.0719142   6.7956304  98.2835949  24.1333389
   7.6551770  98.1173707  25.3680611  94.5677779  71.3801981  38.7095237
  95.2313051  71.5760398  39.3710423  95.0354478  71.4391018  37.8764272
  93.9660523  91.4820946  55.8903599  94.4460938  91.7834402  56.6617107
  94.6455584  91.1747039  55.2903461  27.5833202  19.6483119   2.8770744
  27.4557615  20.5213435   2.5058853  28.4759236  19.6629651   3.2224381
  18.8816070  88.4171117  72.9511547  19.0188884  87.4701930  72.9241085
  18.1001233  88.5304726  73.4921455 103.0681894  87.3854304  46.8067265
 103.0433891  87.9964316  46.0703182 102.4425194  86.7005063  46.5708351
  95.4914508 103.5942060  89.6686172  95.6320450 102.6501233  89.7405434
  96.0032699 103.8549340  88.9029217  98.3762882 103.5578096  64.4917154
  97.9223511 103.1728358  63.7420702  99.2872427 103.6326802  64.2074776
   0.5104446 100.8965177  64.6210003  -0.2178717 100.3056563  64.4295073
   0.1358890 101.7733926  64.5371580  57.2793722  10.0530243  76.7577219
  56.7024899   9.5404071  77.3239899  56.6846657  10.5805922  76.2245893
   1.7442798  84.5374847  13.4487116   2.2859954  85.2916694  13.2163751
   2.0685529  83.8292146  12.8924453  35.2420449  33.6501288  89.1933537
  35.9261680  34.3188572  89.1615582  35.2963138  33.2114077  88.3443546
  41.9211245  34.7106767  61.4572954  41.5403223  35.0649476  60.6537294
  42.8665018  34.7540712  61.3137197  33.0407095  29.8955798  43.8351822
  32.7272367  30.7449436  43.5244608  32.3517323  29.5865893  44.4234562
  24.4650316  11.2220776  76.8826532  24.1699219  10.3384101  77.1023703
  23.6881018  11.6521454  76.5253639 111.0530422  92.7636624  63.8177347
 110.3113029  92.1602727  63.8622093 110.8321736  93.3625520  63.1044483
  25.1265859 101.2871135  77.8414726  24.6861409 102.0961691  77.5813389
  25.8551740 101.2026418  77.2264481  37.4507761  16.0139894  88.2371521
  37.2563148  15.0914299  88.4023952  37.7420783  16.0378397  87.3256683
   4.2945384  85.4759646  40.4341745   4.9063825  84.8348833  40.7959747
   3.4597062  85.0100852  40.3867960  45.5051994  34.9336863  31.9460583
  46.0793209  35.1399875  32.6836610  45.0792885  34.1137385  32.1960855
 105.9131501 104.1944549  65.4615211 106.4593122 103.5027093  65.0881195
 105.5943749 104.6836253  64.7030163   2.6155996  93.4582329  69.2122889
   3.2658719  93.2312191  69.8769999   2.6699828  92.7488638  68.5719204
  51.7682600  21.0162830  54.3481493  51.3336039  21.7696810  53.9485264
  52.4968624  21.3937426  54.8409843   9.5022005  37.7711940  29.7020197
  10.0102961  37.3854613  28.9883804   8.6551988  37.9793715  29.3077064
  20.1391553 106.5419373  57.6596451  19.3973397 106.0446540  58.0041075
  20.8470773 106.3786322  58.2828712  78.7132607  96.4537740  40.0099087
  78.1229067  95.9853650  39.4197345  79.5848934  96.1287118  39.7844696
  30.6125236  32.2742796  25.5860567  31.5248084  32.1166635  25.8292127
  30.2425933  32.7423882  26.3345599  91.4435611  82.0273567  56.6604090
  90.8248696  81.2974978  56.6328859  91.9367847  81.8928576  57.4696493
  15.1542377  94.3034232  66.5122032  14.8200654  94.6305371  67.3474026
  16.0769366  94.5580578  66.5071535  22.6116180  34.0960693  68.9121914
  23.5050130  33.9801025  69.2356586  22.7153015  34.2547870  67.9739571
  50.5447960  18.7180972  55.5126286  51.1281681  18.0460954  55.1600313
  50.9451437  19.5460570  55.2472258  20.0355577 100.6256635  55.7958364
  20.8116054 100.2282620  56.1908722  19.4626235 100.8208591  56.5373755
 104.5067523 101.2073804  57.6695728 104.3413303 101.1670542  56.7276430
 103.6411784 101.3288332  58.0597830  56.9029331  31.4835835  30.9876847
  56.4134932  31.8795395  30.2666450  56.2718248  31.4315772  31.7054796
  10.8368110  94.8383010  49.9905348  10.5488156  94.0492702  50.4495764
  10.8916425  94.5744861  49.0720415  15.9244323  19.7797060  40.7025003
  15.5836940  18.9367962  40.4031134  15.1771080  20.2040958  41.1239624
  17.0342206 105.2102940  35.6970978  16.9164037 105.3376982  36.6384387
  17.9126214 104.8392262  35.6137133  99.2295979  16.7479753  79.1434050
  98.9531325  15.8964813  79.4821644  99.1745542  16.6566515  78.1921625
  89.8809836  81.1851597  76.7473412  90.1426647  80.6205941  76.0200024
  89.8669980  82.0662666  76.3735867  54.1964817  16.6944838  41.1027002
  53.5780573  17.3906910  41.3242483  54.4681406  16.3374233  41.9482422
  51.0801113  61.8493940  10.3890049  51.6194905  62.6333494  10.4925263
  51.5506399  61.1695327  10.8713162  42.8087282  17.5680244  44.3227768
  43.1411362  17.0302689  45.0414991  42.1848249  18.1635368  44.7379208
  17.8952205   4.3071610  27.7353859  18.1296659   5.1862246  27.4378729
  18.6526084   3.7675908  27.5085378  99.9683855  74.4661856  60.6211376
 100.0559447  75.3968549  60.4151726 100.7363126  74.0588999  60.2203417
  44.1947842   6.9245291  74.6239042  44.8086834   7.5693065  74.2723036
  44.1771793   6.2278885  73.9676905  99.8244474  89.4067336  38.6572909
  99.1289733  89.5253230  38.0103898  99.7549460  90.1728857  39.2268610
  71.5620708  21.6369200  42.3750067  71.6786671  20.7669067  42.7567291
  72.4501610  21.9298291  42.1707296 109.4347999 106.5992424  34.2850995
 109.0317652 106.0147066  33.6431408 109.9914429 107.1788151  33.7650275
  39.2859340  15.2022314  57.0147085  39.6719456  15.2639759  56.1409712
  39.9507904  14.7561443  57.5393057   1.6483688  93.5435832  66.0450125
   2.5044202  93.1206358  65.9777880   1.7864417  94.4215811  65.6896448
  13.1141365   4.3313062  22.2142601  13.7213063   5.0498271  22.0373297
  12.5566399   4.6573058  22.9207683  24.0207100  40.1745129  84.1132927
  24.2879295  40.3182030  85.0211334  24.5282745  40.8115673  83.6105251
  77.4093579  95.1152456  51.7466497  77.5153588  94.9224473  50.8150768
  76.4829492  95.3365982  51.8415260  36.8420410  13.4162307  59.1462183
  36.8884993  14.3625033  59.0096807  36.0911942  13.1353498  58.6231804
  13.2059646   1.4606138  79.6093845  12.8754079   2.0627701  80.2759933
  13.2933319   1.9987957  78.8226414 100.7647989  99.7869456  77.5655365
 100.7513688  99.3010855  76.7409229 101.6840313 100.0234736  77.6892281
  28.1435871   8.8272154  63.4394550  28.1823921   7.8717321  63.3972931
  27.2079062   9.0290040  63.4429455  93.0026434 100.3673995  21.5428281
  92.4979422  99.5682210  21.6938972  92.6211748 100.7453955  20.7504678
  35.4309726   6.0667646  73.2173157  35.8805251   5.5545115  72.5452089
  36.0836339   6.7027247  73.5102654  31.5285206   8.4028906  48.5604906
  30.7361245   8.4279144  49.0968800  31.6385174   9.3028587  48.2535839
  21.1777878  13.4096611  80.5022907  21.3374472  13.1226170  79.6032095
  20.2525830  13.6547661  80.5147362 112.0943711  86.0230613  78.6767960
 112.2093198  85.0840116  78.5311842 112.2031281  86.4148832  77.8102589
  20.3599238   5.7346964  85.3566360  20.6459904   6.5824163  85.6968784
  20.3266025   5.8563364  84.4077778  63.4062383  92.1811569  85.6805515
  63.0479548  92.8794385  85.1325893  64.3293438  92.4105609  85.7877064
  32.5082016  18.2083809  83.2508469  31.7779326  18.5634959  83.7576389
  32.1170068  17.5130045  82.7220249  48.9232159   2.3627008  41.2767315
  48.4329796   2.8708076  40.6304169  48.5154390   2.5832769  42.1141672
  24.0380096  41.6656446  62.8385735  24.1972709  42.3140478  63.5244608
  24.5879054  41.9494820  62.1083117  86.0250566  88.7078369  60.6541920
  85.9952495  88.9646388  61.5758181  85.8367715  87.7693606  60.6608391
  39.0838313   2.7506828  33.0018854  38.9496708   2.6141515  32.0640206
  38.6842752   1.9851883  33.4149289  81.4835731 103.5247192  22.2074056
  81.3360313 103.7576792  23.1240273  82.2334311 102.9301829  22.2290921
 101.9394968  64.1196967  47.3059177 101.1351726  64.1347027  46.7872000
 101.8211958  64.8164559  47.9514885  22.9348469   1.9121377  79.4646406
  22.8829741   0.9951823  79.7343302  23.2067442   2.3791517  80.2547073
  26.2808347  13.5114336  41.1204195  26.5707612  12.9424083  40.4074097
  25.4346085  13.1510448  41.3854790  67.3517752  15.8900487  63.7923479
  66.7538309  15.9661603  64.5359182  67.5650120  14.9578238  63.7509203
 106.4827893  92.5618375  70.9984541 107.2229002  92.0613218  71.3418961
 106.2410996  93.1521905  71.7121077  42.5135422  23.9657974  65.6352854
  42.1429253  23.7628007  64.7764111  43.4600210  23.8970304  65.5100489
  85.7006095  99.9701030  38.1240869  85.7389388 100.2121425  39.0493870
  84.8312012 100.2511395  37.8388166 110.8853648  92.1463001  74.3594503
 110.4496143  91.4504696  73.8673401 110.6685898  92.9480577  73.8836098
  14.1965770  89.4890750  50.5891991  13.5742234  90.1974869  50.7537031
  14.6611690  89.3808926  51.4190674   4.4279021  30.3064775  46.3122272
   4.3390575  29.3560314  46.3828611   5.3571010  30.4726338  46.4710140
  50.2843142  14.3775320  65.8239937  50.8768415  15.0769162  66.0996819
  49.4142675  14.7755611  65.8526230  47.1859884  13.5449207  64.1371679
  47.5901461  13.1012785  63.3914709  46.7114925  14.2804837  63.7498331
  33.7263155  21.6625595  76.6132641  34.3870473  22.2135019  76.1935902
  34.2189670  20.9171414  76.9566011  94.1757677  74.0879894  42.7420855
  94.9138484  74.4832063  43.2060575  94.2902074  74.3623472  41.8322134
  74.7020599  92.8031731  51.2426662  74.5709664  93.5422814  51.8366051
  74.1887254  92.0927597  51.6274166 104.7340796  80.8046866  83.8804340
 105.3422949  80.0657249  83.8959503 105.1918957  81.5016103  84.3504715
   3.0509120  16.3772285  41.3445759   3.2726225  15.5048752  41.6702700
   3.4414342  16.4132917  40.4714060  42.5499725   2.5216636  43.2869530
  41.6985989   2.8151247  43.6114168  42.4831867   2.5989708  42.3352194
  47.3095417   1.2593284  43.9224529  46.8818521   0.4880742  43.5503244
  48.0209398   0.9047629  44.4557714  93.0384944  72.0486284  48.9449978
  93.7091444  72.2618270  48.2961512  92.2795854  71.7818046  48.4262562
   4.9299001  95.1511276  65.2350903   4.6851157  95.9934831  65.6181717
   4.7350024  95.2463127  64.3027878  86.4306305 104.3872248  83.7477970
  85.7694826 103.7105775  83.6019802  86.9928274 104.3434118  82.9743385
  86.6341040 102.4956439  28.4079814  85.8895598 102.8578026  28.8883209
  87.2617302 102.2509620  29.0880156  90.0650141 106.7255795  44.0724277
  89.7174976 106.1396374  43.4000158  90.9052835 107.0209024  43.7217617
  35.7654666 103.1181419   3.4294370  35.3126239 103.9574028   3.5119432
  35.2175235 102.5015760   3.9150673  43.0171824   9.5863467  83.0898666
  43.4107065  10.3541100  83.5044861  43.5690451   8.8550854  83.3672428
   2.1471595  90.8174980  51.5635395   2.0755910  91.7564583  51.3918972
   3.0511283  90.6952561  51.8535805  49.9134541   7.9455340  76.5462589
  49.2386389   7.3308682  76.8344307  50.1896763   7.6145875  75.6916237
  63.9107467  59.0508081  14.6072781  64.0713955  58.6052151  13.7754929
  64.3576504  58.5103441  15.2587521  93.6147497  79.1807891  34.8149586
  93.5727201  78.2520247  34.5872283  92.9230294  79.2993332  35.4658818
  56.1624193  19.2986155  48.1084204  56.6363668  19.4862127  48.9186096
  56.8229532  18.9237344  47.5258493 104.8148058  87.8942907  52.7170420
 105.7129214  87.9105914  53.0477285 104.3637822  87.2648454  53.2797194
  24.3268108   3.9395204  60.7176685  23.8083363   3.7406445  61.4973259
  23.9539623   4.7554541  60.3838015  25.2714038   4.5566219  80.0128460
  25.4787254   5.2346838  79.3698168  25.9554195   3.8975021  79.8948812
 109.5005009  70.3521824  73.4736538 109.5222900  70.7641149  72.6099014
 108.5805342  70.1239086  73.6070061   1.5416425  11.3192093  64.9696684
   2.3681900  11.0161591  64.5938873   1.7201929  12.2174454  65.2480984
  43.9115715   4.6390519  40.4209185  43.9847422   4.4597149  39.4835210
  44.1701937   3.8195127  40.8424664  41.2457561  25.4166818  60.8255243
  41.6793156  25.9016538  60.1233435  40.7375526  26.0781145  61.2950611
  45.2955770   1.6683017  57.5399113  45.8667517   2.4195923  57.3800516
  45.8725405   1.0051219  57.9187775  43.5426664  21.2725687  66.8628550
  43.6295033  21.5222883  65.9428930  42.5987244  21.2672782  67.0215273
  55.4060459  27.3487830  50.1577330  56.0366774  27.8495550  49.6402740
  54.7994471  28.0064392  50.4979658  36.6399527  10.1989126  62.7409410
  37.5384688   9.8827314  62.6464558  36.6841125  10.8365691  63.4534550
   7.9432153 102.7146137  57.7584362   8.0178594 103.5179172  57.2433043
   8.5822534 102.1189568  57.3672152  -0.1622010  92.7565456  58.4961319
   0.1577329  93.0923200  59.3334675   0.4585456  92.0666171  58.2618189
  51.8884420  18.8342595  30.3355837  51.6178703  19.5964408  30.8475471
  51.1795473  18.2021046  30.4542446  43.0886078  11.4132500  66.7692661
  42.8669548  11.9095099  67.5571918  43.6960268  11.9791317  66.2927675
  31.0628533  21.4753151  78.5147047  30.4569888  20.7405829  78.4181070
  31.6189265  21.4310718  77.7368498  88.3690643  28.7475920  29.3752289
  88.5452175  29.1821170  30.2097297  87.4801159  29.0192127  29.1467142
  81.4130878  16.9402564  38.4927630  81.6466999  17.3184991  39.3404603
  81.8356895  17.5111616  37.8511143  43.2815886  23.4034491  35.1545882
  43.3946609  23.6518478  36.0720539  43.0993080  22.4641490  35.1814771
  57.9888630  14.6292627  37.0782781  58.6460829  14.2877972  37.6846600
  58.4514093  15.3008842  36.5770745 111.1045589  18.4618783  59.6858883
 111.7257611  18.7387788  60.3594351 111.0123216  17.5184000  59.8184490
  31.9178009  24.0222645  64.6207094  31.4973092  23.6324644  63.8542366
  32.8285837  24.1498017  64.3552971  30.4226207 103.9528186  26.4349818
  29.8180579 103.6651686  25.7508779  30.0708245 103.5736821  27.2404170
  86.8232057  84.7700191  72.7279711  87.2231755  85.5962873  72.9991484
  87.5375090  84.1340232  72.7668524  39.8587632  27.2359920  75.2745199
  40.6654358  27.5213480  74.8454666  39.7331858  27.8610611  75.9884882
  57.1739483  21.7409992  75.2373648  57.8222704  22.3136377  75.6472349
  57.5576782  20.8658910  75.2936792   8.5052442  80.6230331  60.6983805
   7.8607415  79.9985576  61.0313749   8.2605027  80.7542825  59.7823524
   4.4073486 104.9157684  36.5960836   4.2768668 105.8629832  36.6406941
   4.4193219 104.7195004  35.6592989   4.1715383  79.3810988  32.9856062
   4.9378013  78.9433885  32.6148152   4.1000890  80.1980258  32.4918866
  36.7458081  15.1089013  46.9649744  37.3270369  15.8492172  46.7907953
  36.0668325  15.1742983  46.2934446  62.9561138   4.6330816  77.4931812
  62.9887819   5.5890089  77.5301695  62.0252848   4.4285053  77.4040890
  37.5259900  29.1753912  41.9162655  37.8409815  30.0781488  41.9614840
  36.9156957  29.0976501  42.6495647  17.6825023  36.1637378  75.0011158
  17.1062350  36.1150146  75.7638550  17.1414328  36.5578985  74.3169260
  42.0569420  18.2986426  84.4299889  41.7873907  18.6158216  83.5680294
  41.2536955  18.3077621  84.9505138  10.5794286  93.6117781  68.5157299
  11.1940955  92.9065204  68.3131695  10.6824731  94.2335702  67.7953243
  32.4853921  18.4145081  57.5602579  32.2379041  17.8917503  56.7975616
  33.1808472  18.9895535  57.2410440  66.5155817  32.6095111   7.4507534
  66.9008971  32.9389889   6.6388333  66.9624639  33.0967696   8.1429302
   4.8547315  96.2182165  40.0716543   5.0588893  97.1251727  40.2996492
   4.3795489  95.8814455  40.8312750  23.1706715  18.1594276  46.3761902
  24.1181421  18.0356836  46.4328957  23.0642271  19.0679932  46.0943890
  16.0219859 104.5643561  66.9644833  15.9681844 103.7732384  66.4283228
  15.4954194 104.3652881  67.7386475  62.5510311  46.2467527  32.4743152
  63.1250238  46.9326544  32.1332717  63.1086302  45.4702854  32.5233912
  21.6745353  13.6229229  71.6282701  21.4176369  12.7346468  71.3808870
  20.9999418  13.9039481  72.2464800  35.0289416  38.9782929  39.3196106
  34.4994903  38.9500499  40.1165533  34.5650005  38.4112453  38.7036180
  93.5787592  97.1515203  58.3351231  93.5651896  97.7271677  57.5704813
  94.5084522  97.0360125  58.5314941  46.9658756  23.1681538  71.2851286
  47.8203249  23.5543871  71.0928345  46.8538237  22.4905300  70.6184196
  34.7942519  14.7007811  61.6351032  33.9021945  14.5147276  61.3421011
  35.2377009  13.8530052  61.6057873  65.1604557  28.0783844  71.4012766
  66.0330915  27.8819871  71.7421103  64.6045160  28.1253552  72.1790695
  35.6757164   8.8587463  57.8200912  35.6076884   9.2981857  58.6677313
  34.8622251   8.3602631  57.7427626  49.0209770  32.7072692  53.0775404
  49.9776745  32.7382731  53.0803680  48.8107538  31.7858386  53.2292175
  38.0733395  17.2407866  46.4160728  37.7343702  18.0917966  46.6937637
  38.1199288  17.3012936  45.4619217 101.0234759  97.9583371  68.3239508
 101.8956897  97.9826254  67.9303980 100.7842228  98.8787109  68.4330511
  52.8612185   6.7322600  56.9609070  52.5917339   6.2157977  57.7204275
  52.0503855   6.8862188  56.4760542  69.2827368   2.7443549  22.2894812
  70.1026726   2.5081444  21.8557334  68.9268541   1.9113892  22.5989127
  19.7849464 101.1382372  17.3093593  19.7567605 101.4061595  18.2278669
  18.8657760 101.0488570  17.0576274  43.4650135  14.7370720  74.2887259
  43.5988569  15.6293726  73.9691687  42.5154924  14.6170318  74.2732716
  29.7344732  44.7610044  48.5976124  30.1462626  45.4766560  49.0818787
  29.7722197  45.0383377  47.6822472  41.7565203  48.9913988  73.2649708
  42.5784111  49.2453432  72.8451586  41.0806084  49.4477081  72.7638149
  92.5571761  70.8457995  86.9779587  92.1179578  70.1209164  86.5331364
  92.7651045  70.5027700  87.8470516  69.1372538  50.6442022  87.7562904
  68.2054472  50.8632040  87.7533531  69.1827106  49.7851562  87.3365211
  69.4644165  29.5309997  92.2030354  69.9462843  28.8384914  91.7508602
  69.4981289  30.2767348  91.6038895  12.0729434  22.8676796  65.0830793
  12.7135289  22.7952766  65.7906389  11.3110864  23.2793403  65.4909325
  30.8651972   5.8142972  37.5108266  31.4359546   5.7837564  36.7430139
  31.3135672   5.2772135  38.1640792  42.9071903  31.0003185  76.4126205
  42.5577927  31.5708423  77.0972061  42.3817682  30.2026010  76.4743757
  35.9825230  37.6197958  46.4586926  36.3846517  38.2834077  47.0191813
  35.8032942  38.0769157  45.6370211  10.2251863  89.7548628  52.2742558
   9.5682000  90.2767659  52.7349234   9.8910760  89.6842921  51.3800383
  40.6856918  96.9114692  56.9323444  41.4223861  97.5211353  56.9750214
  40.9622573  96.1641157  57.4626350 100.2980588  99.3419904  48.0849695
 100.8486173 100.0497318  47.7499771 100.1522849  99.5664532  49.0039921
  72.6730871   0.2650511  27.4504995  72.7528286   1.1963890  27.2443867
  72.2167015  -0.1088474  26.6967487  39.6820164   9.5296204  82.9705334
  39.7089410   8.5730237  82.9912567  39.9523592   9.7959292  83.8492966
   5.4291772  69.3516970  55.4268885   5.5489635  70.2626563  55.6952858
   6.1887502  69.1624523  54.8760128  13.4364032 106.2664956  24.6678376
  13.8616323 105.5094261  25.0706482  13.5347985 106.9674410  25.3122187
  78.2554326  88.3264614  46.9379377  78.2679243  89.1103888  47.4870586
  77.9231297  88.6308456  46.0934496  13.3613694  11.8569136  62.6225185
  12.6847661  12.2621620  62.0801020  12.8841388  11.2461448  63.1841612
  33.9673686  48.6002970  25.8312035  34.4799256  49.0783978  25.1793313
  34.5260453  48.5812569  26.6082144  47.5614691  28.9793062  18.8441706
  48.4145737  28.7299991  19.1995490  47.6058674  28.7336087  17.9201066
  97.3658035  79.8955823  67.2631264  97.5082133  79.9238468  66.3170004
  96.5379498  79.4263936  67.3668146  22.6127051  80.6847573  42.4997234
  22.8435897  80.0385237  43.1670332  22.6680373  80.2055598  41.6729593
  17.9225682  95.7118977  34.6525908  18.3020209  95.2612722  35.4070354
  18.0061816  96.6421009  34.8622632  31.1153602 101.4387376  78.9371586
  30.5980348 101.2078083  79.7087049  30.7263374 102.2551504  78.6235332
   8.8091749  57.1314001  87.4489307   8.9463884  58.0034924  87.0789814
   9.3794620  57.1047068  88.2172298  25.8282471  20.6993103  61.8906975
  25.1497173  20.8481669  62.5492382  26.1592531  19.8217690  62.0819807
  47.9842997  18.8191628  70.3889751  47.2524214  19.2526627  70.8279085
  48.7506056  19.0543544  70.9121227  22.2191596   4.5251840  51.4047956
  21.5375471   5.1304662  51.6968012  22.5188351   4.0970069  52.2067213
  95.3164790  87.4873806  18.1620324  95.2386341  86.5362836  18.2367778
  95.6530569  87.6313758  17.2776043  92.1092701  18.7949836  27.6094341
  91.6304588  18.3754075  26.8946433  91.5065479  19.4590092  27.9441381
  24.9579858  73.1021214  31.4182115  25.0369786  73.1840873  30.4678059
  25.8308696  73.3122469  31.7501068  35.5790710  25.0570083  54.4142437
  35.3719139  25.6599116  53.7002230  35.1623487  25.4448843  55.1837444
  29.1265321  33.9259529  23.2544160  28.5738468  33.3601689  23.7935424
  29.9815893  33.9054036  23.6841655 111.6170976  84.3231559  41.1102057
 111.1428592  83.8805128  41.8140507 112.2533987  84.8775530  41.5618658
  17.6720476  13.5218966  24.8145628  17.1048713  14.0353823  24.2393470
  18.5546017  13.6694419  24.4746232  64.6555519  20.2431941  63.7755775
  64.6759892  19.3352807  63.4730721  64.7827196  20.1831031  64.7223902
  61.5368462  31.6524029  64.5642519  60.8260727  31.0131645  64.5151854
  61.1220741  32.4463367  64.9016905  59.8771524  36.8400407  65.2078247
  60.5490160  37.3631406  64.7705698  59.3054485  37.4846292  65.6248283
  30.2319503   0.1488751  79.2150164  30.3632522  -0.6005960  79.7957802
  29.9925542   0.8668987  79.8009872  92.5461254  42.6104737  13.7803149
  91.7525015  43.0423451  13.4642780  93.2613359  43.0790139  13.3499920
  12.8973579 101.4777035  41.5134478  12.1667909 101.8574018  41.0252571
  13.6635398 101.6408212  40.9633636  79.8172665  17.6423311  44.3319559
  80.7534695  17.7007818  44.1413212  79.5859432  18.5096025  44.6644640
  17.0816064  23.3540177  85.7634926  17.3332047  22.5351715  86.1905956
  17.5115752  23.3203888  84.9089527 113.0567273  10.6983495  57.3070717
 112.9663208  11.5210044  57.7880049 112.1863537  10.3018153  57.3450470
  56.8046618   1.3497961  78.0266714  57.3655558   2.1142146  78.1581879
  56.2959385   1.2841161  78.8348246  98.2571555  83.9619072   9.4510853
  97.6577664  83.8643343   8.7111962  97.7959920  84.5406754  10.0582039
  33.1149435  14.1128087  74.6562004  32.9021478  14.6680462  75.4063082
  34.0180278  14.3421757  74.4369745  91.7608738  25.7743239  15.0662386
  91.7203999  26.4525223  15.7405066  92.2553539  25.0622869  15.4720974
  60.9841490  25.6476355  56.8511963  60.4729366  26.4245343  56.6246653
  60.5551100  25.2979326  57.6321363  26.8071841  99.7332001  17.1365952
  27.4438762 100.4101587  16.9072866  27.3390578  98.9661921  17.3488271
  41.5602970   5.3128743  63.3537626  42.1503639   5.6678718  62.6889086
  41.8171453   4.3944675  63.4361649 100.7213783  24.4407678  64.1755819
 100.9209442  25.3608465  64.3483829 101.0395908  23.9770961  64.9501657
  61.6405010   2.6416785  23.3904004  62.0131493   2.1101587  24.0938568
  61.3611126   2.0056272  22.7319074  63.0788660  29.4363952  51.9422197
  62.7728605  30.2872729  51.6282082  64.0208626  29.5517588  52.0669508
  33.4466481  11.8511474  38.8170481  33.0637980  11.0159028  39.0854192
  32.9282713  12.1194863  38.0584240  19.6258140  78.4063482  67.6619148
  19.5138264  77.5129652  67.3370171  19.3451333  78.9624548  66.9351435
   7.9755485  20.9030318  49.9762154   8.1067258  20.2322721  50.6463671
   7.2729164  21.4532399  50.3223562  53.3652830  13.5293591  74.6829605
  52.9509974  13.9309025  75.4467440  53.1589365  14.1213572  73.9596415
  40.2543688  10.7379770  68.2263136  40.8807564  10.1014686  67.8817415
  40.4224586  11.5353882  67.7242041 106.5544508 105.8456229  46.1210155
 106.4911244 106.7781671  46.3273716 107.0470069 105.4715691  46.8515635
  33.9530087  28.9745688  79.0004635  34.6160960  29.2233682  78.3565331
  33.3693433  29.7317362  79.0480185   6.3888501  76.5836669  38.7918067
   6.1816119  77.0157576  37.9632044   7.0999908  77.1059180  39.1629672
  48.7991428  33.1905961  69.4667244  49.2733479  32.5251031  69.9652004
  49.4852495  33.7387538  69.0859270  16.0282659  98.7247748  81.9149590
  16.8578958  99.2010236  81.8812943  15.7555007  98.7832666  82.8306007
   4.8839425  94.6661532  50.8181810   4.4666623  94.3574739  50.0139236
   5.1550054  95.5622304  50.6186771   0.3137995  42.2400856  37.3339772
   0.3024216  41.3332081  37.0279169  -0.5586407  42.3795414  37.7022600
  34.9127388  25.7761216  67.0572472  35.5759811  26.2603951  67.5489998
  34.6851397  25.0390124  67.6239061  14.1522992  36.2061143  47.2864580
  14.9892449  36.4417148  47.6867676  14.3744671  35.9771800  46.3839817
  47.2091579  62.3034716  42.5424242  47.2255564  62.1797752  43.4914541
  46.4784908  61.7624760  42.2429609  40.8788394  95.4681850  54.6964121
  41.5680455  95.9884239  54.2833996  40.6867360  95.9299398  55.5125666
  30.9823871  10.4390824  25.0853729  31.2583756  10.9505546  24.3248105
  30.6211376  11.0863435  25.6909990  40.3921747  16.1196554  79.9314213
  40.2502155  17.0366192  79.6963501  39.5155311  15.7353377  79.9369526
  32.0726585  98.9454288  78.6180115  31.7470597  99.8431898  78.5528803
  31.8399953  98.6700053  79.5047140   5.1406430  77.4536968   8.6321753
   4.4464969  76.8021656   8.5326529   5.7491111  77.0616365   9.2585009
  89.9428926  92.4491573  24.3361473  89.4442568  93.1835378  24.6943092
  90.5361888  92.8497208  23.7007117  27.7756596  25.5359387  12.1609211
  27.9014635  25.2380991  11.2599790  28.5402989  26.0827351  12.3413968
  18.6401939   1.3837440  47.5153685  18.8356233   0.6387578  48.0837297
  17.6877260   1.3698818  47.4213314  48.2331657   4.5296338  25.4722452
  47.4651909   4.5641184  24.9019337  48.3992004   3.5948572  25.5941367
  24.8444653  57.2995996  85.7420921  24.2231584  56.8176508  86.2879276
  24.3629122  57.4823380  84.9352837  63.1934500  17.6546335  87.0489883
  63.6006689  17.5887883  87.9127407  63.8687325  17.3514926  86.4420795
  29.4632030  10.6649947  85.6148529  28.6647725  10.9675443  86.0475349
  30.0301528  10.3790760  86.3311291  28.2664204  10.6915081  32.7783442
  28.3235526   9.8221964  32.3817778  27.3356819  10.8066833  32.9698944
  76.6767301  83.0458761  46.8905163  75.7218498  83.0995823  46.8511295
  76.8848125  82.1945096  46.5056658  79.0078736  84.3184574   3.4264862
  78.4549523  83.8433940   4.0468323  79.2769862  83.6563594   2.7897465
 103.7447665  87.4423040  36.4853787 103.7804816  88.0501581  35.7468176
 104.3782351  86.7595435  36.2644982  15.1568758   5.9840989  32.9165292
  14.2223585   5.7775944  32.9003024  15.3947580   5.9449905  33.8428760
  18.0351733  91.3957584  86.6671848  17.6857232  91.1428071  85.8127022
  17.2773790  91.3748193  87.2515965   7.7896726   1.1111724  32.4572110
   8.3283651   1.8321291  32.7831912   7.1328431   0.9751934  33.1400847
  70.2739334  33.1320357  50.0541115  70.7276821  33.2239985  49.2163277
  70.6042528  32.3099327  50.4164219  11.5593814  79.8331833  55.0928688
  10.9003781  80.0000954  55.7667255  12.3668861  79.6743584  55.5816889
  51.7281914  11.0555398  74.7516346  50.9575224  11.6058421  74.6120787
  52.4228573  11.6711092  74.9856043  58.6284924  25.8702159  67.2535563
  59.3643761  26.4587188  67.4219799  59.0367031  25.0465941  66.9866467
  65.6072044  -0.0640100  72.9715252  66.3460350  -0.5476334  72.6021051
  65.7003498   0.8212261  72.6195145  30.6315422  27.3020267  59.4620991
  30.0954556  26.5122366  59.5333338  30.0649285  27.9374433  59.0245771
   5.5619620  88.4083164  69.2116690   5.2142762  89.1853679  69.6493196
   4.9678134  88.2620109  68.4755850   7.0594167  94.5738292  36.2409139
   7.6355552  93.8676143  35.9484148   6.8548154  94.3550099  37.1500278
  57.5201035  26.9104075  15.6406093  57.5060368  27.7892637  16.0196185
  57.0271492  26.9936728  14.8243415  47.3766470  22.7903557  19.9987185
  46.5490341  22.3100376  19.9746132  47.4314356  23.2162023  19.1432154
  67.7570200   1.9095774  25.6882620  66.9077539   1.9145997  25.2467299
  68.0521250   1.0008981  25.6295466   0.4004739  24.0358949  46.5999269
   1.2154984  23.6751628  46.2508678  -0.2576011  23.3667684  46.4116716
  54.2675161   0.6244803  18.8270295  54.3550014   0.8799175  19.7453594
  53.3902788   0.2463565  18.7661290  55.7890591  63.6939686  85.2611929
  55.9374925  64.1693013  86.0786635  56.1160013  64.2813879  84.5798117
  12.4389601  19.6696591  60.0406742  12.7687252  19.2447007  59.2489052
  11.8681860  20.3671098  59.7181702  43.9768171  14.4934380  39.5889688
  44.4439554  14.1054547  40.3288889  43.2090330  14.9088061  39.9816585
  25.2974153  60.7361937  69.4181728  25.6845665  60.8230877  70.2892637
  25.9313536  61.1494303  68.8320112  26.6672206  16.9242072  55.2424717
  27.5744343  16.6197276  55.2645683  26.7356467  17.8780913  55.2017879
  70.8457137  77.6710875   4.8688996  70.2764107  78.3815486   4.5733177
  71.3219024  77.4030049   4.0830242  50.4221201  39.4130349  76.2224817
  49.4753981  39.3184352  76.1175823  50.5744934  40.3571367  76.1814642
  37.0916343  14.4415820  51.1532354  37.2568440  13.7249935  51.7659664
  37.9179311  14.5492470  50.6821966  52.1580410   4.3205351  54.3494892
  51.7732430   3.7411004  53.6919069  53.0115366   4.5595765  53.9880562
  56.6737986   2.5805828  72.7156925  56.4357805   2.7167547  71.7986107
  56.1208916   3.1935897  73.2002020 108.6732242  95.4387165  57.6555538
 108.3355544  95.8203221  56.8452549 109.6239612  95.4436565  57.5446224
   5.6129359 106.0763454  33.0067825   6.4526176 106.4409141  33.2865238
   5.7690858 105.1338748  32.9467940  58.4696627  32.2524571  64.0616608
  57.9138899  32.2691321  64.8408079  58.7004948  33.1693459  63.9124489
  96.6809413  97.2196943  62.7689219  95.7532523  96.9839407  62.7757692
  97.0957968  96.5441263  62.2325134  46.3020611   5.7007790  52.0572662
  45.9054232   6.4622873  51.6341639  46.9365072   5.3753579  51.4186668
  62.2853088  17.8695071  61.9922447  63.0789185  17.7821720  62.5202465
  62.0529127  16.9707990  61.7586899  51.9824886  12.4388373  33.7366080
  51.0527563  12.3940456  33.5133886  52.1686411  13.3755958  33.8003492
  36.4065027   6.0058951  40.5401230  36.2124014   5.5376130  39.7281694
  35.5627131   6.0693604  40.9875870  49.8248529  27.3872352  71.6634035
  48.9768457  27.7418089  71.3961983  50.2835035  28.1314301  72.0533323
   8.2467884  24.1526198  86.8253326   7.5156528  23.8428688  87.3598671
   9.0195370  23.7467194  87.2181892  58.2816839   2.0726418  45.6861067
  57.7537918   1.2745932  45.6600142  58.4815121   2.2577380  44.7684765
  27.3438573  36.0257220  15.9696412  27.4992180  36.3074493  16.8711543
  26.9143653  35.1745915  16.0553312  68.5012913  13.0557311  10.5014908
  67.6479197  12.8842235  10.1032794  69.0886736  12.4204504  10.0920606
  87.6293373   4.3638465  49.4828749  88.4381485   4.3727976  49.9947214
  87.7855682   4.9913341  48.7771225  53.2731962  48.5204887  79.7554874
  53.6460590  47.8019571  79.2446899  53.9964008  48.8252783  80.3034973
  58.2730484  13.6040175  51.3079882  58.2375193  12.7784276  51.7910719
  58.3017302  14.2778957  51.9871759 104.9386523  98.7816543  62.7303123
 104.6661279  98.8702632  61.8170166 104.4621322  98.0151719  63.0491638
  20.3547525  18.0314422  43.7847996  20.8728838  18.7528431  43.4279394
  20.8483934  17.2446561  43.5534620  42.8618431   5.7679498  51.8421316
  43.6340332   6.0375422  51.3448668  42.4788141   5.0597674  51.3244486
 109.3492148  71.1519409  89.8984337 109.0281603  70.9899140  89.0113544
 109.8499701  70.3665853  90.1190853  23.8747168  33.6873674  72.7500486
  24.7476578  33.5405779  73.1142759  24.0346384  33.9536929  71.8446589
  96.2429044  97.7773685  59.4926500  96.1853335  96.9483036  59.9675941
  96.7140553  97.5603372  58.6881971  33.7698363  82.8827835  36.2377667
  33.5173940  83.8058997  36.2188005  34.3560886  82.7793480  35.4882097
  41.9344568  11.4170945  14.6022832  42.6354313  11.4243913  15.2540612
  41.2893629  10.8020067  14.9512100  61.5895033  27.6788306  82.7184200
  62.0887613  27.5246191  81.9164276  60.6785440  27.5279021  82.4662209
  68.6953235  52.8297202  13.4713089  69.5340157  52.7982483  13.9315617
  68.7356020  53.6346230  12.9548371  53.6221409  20.4938269  82.2655010
  53.6348867  21.4375877  82.4248219  54.1221571  20.3806090  81.4571667
  20.6806707  86.2095380  50.8239460  19.8917817  86.4972520  51.2834072
  21.3851976  86.3267542  51.4612341  45.2830791   9.3148237  78.1793165
  45.5833435   9.0738702  79.0556812  44.3726301   9.5830089  78.3033943
  90.1722083  90.3381217  26.6279817  89.6110961  90.4545832  25.8612871
  90.9842215  89.9723435  26.2771654  10.0813031   0.7309826  75.2894449
  10.0071907   1.5045875  75.8482599   9.3133128   0.2031316  75.5080652
  37.8544354  10.0314164  47.1594048  37.5608158  10.8777368  47.4966908
  38.4378433   9.6923655  47.8383064  31.6100383  20.7167697  59.0495539
  31.7885447  21.6246557  58.8043737  32.1486330  20.1971817  58.4527493
  19.4339179 104.7412249  64.6313524  18.9440726 104.4686871  63.8554621
  18.8783406 105.4014579  65.0456715  59.4089031  13.1712794  25.3721261
  59.8288298  12.3335910  25.1767421  58.8598156  12.9916978  26.1353302
 102.8541133 103.0005038  38.8105822 103.0492256 103.7067262  38.1946182
 102.2820494 103.4035469  39.4636750  96.3482378  95.7290483  86.3365364
  95.9440610  95.5704773  87.1896076  95.7334468  96.3063849  85.8838177
 105.5899522  79.3670321  70.3328753 105.8279297  80.1198245  70.8740807
 104.6337102  79.3405724  70.3665447  64.8535728  32.0947838  52.3263502
  65.7230520  31.7407608  52.1395254  64.9126577  32.4119115  53.2275534
  95.1308987 106.5380683  53.0081844  94.3296812 107.0231149  53.2056999
  94.8381183 105.6368209  52.8730345  21.7501664  37.5269842  60.5147362
  22.2616529  38.3090830  60.7219410  21.3769650  37.2557259  61.3534069
  52.7501583  11.3623893  30.9987211  52.3654890  11.9558501  30.3536868
  52.6367950  11.8124819  31.8358564  46.0963535   9.4215506  59.2537785
  45.4645729   9.4869620  59.9698877  46.9304132   9.2383093  59.6862078
  87.1374607  26.0363626  39.0522122  87.9528427  25.5561113  38.9081788
  87.3563194  26.6845226  39.7217059  48.7349987  14.4675171  52.7852869
  48.7289429  13.5850894  52.4144506  49.0999889  15.0164747  52.0912695
  40.3933191  16.4753425  66.8923950  39.6095657  17.0247269  66.9040108
  40.7942009  16.6117859  67.7508307  79.7179556   6.5381098  43.0907965
  78.7922859   6.4809054  43.3276320  79.8659086   7.4693322  42.9259729
  53.6483383  32.9724860  47.8618145  52.8863811  32.5858259  48.2932615
  53.8058996  32.4093366  47.1040058 101.3997123  92.8726388  78.3312988
 100.5896637  92.4496508  78.6161423 101.3322208  93.7677301  78.6636972
  85.4249582  79.5813013  50.8637762  85.3044502  80.3692318  50.3338003
  86.2127457  79.7569299  51.3783455  41.0104275  26.3385534  50.3871489
  41.5327549  25.7001233  50.8727503  41.6256952  27.0409775  50.1767159
  39.5465636  37.1827984  54.4214058  40.2303600  36.9479227  53.7941217
  39.7259927  38.0972505  54.6400785  29.3981742  90.8083308  68.8533831
  29.8792743  91.5914512  69.1207695  29.0630101  91.0190416  67.9818916
   0.4007553  83.3323265  53.5594225   1.1173629  82.7039004  53.6476564
  -0.3171612  82.8252602  53.1803274 103.1764791  94.8097170  87.4976730
 102.4829099  94.1973901  87.7431297 102.8752205  95.1956368  86.6751480
  30.3892970  46.1323786  52.6405096  30.8609104  46.4613199  53.4057617
  31.0741234  45.7899427  52.0660686  44.8335838  30.2110434  28.5529590
  43.8785315  30.2681279  28.5239315  45.1329184  31.0952425  28.3412504
  63.6500788  10.4059362  52.9626608  62.7391624  10.1119328  52.9680634
  63.9135218  10.3525949  52.0439720  55.4803514  22.3394370  70.1869154
  56.0678291  21.9484687  69.5401955  56.0565758  22.8483081  70.7572174
 103.2980395  67.3588617   6.7323410 103.2140351  67.6124640   5.8131802
 103.4679366  66.4172156   6.7064297  41.0242224  29.7879004  48.3794260
  40.5229139  29.1603518  47.8587484  40.5406952  30.6096554  48.2948542
  38.9086390  54.9435568  56.1751604  38.3263946  54.6641064  55.4686689
  39.7893381  54.7722721  55.8415985  44.9015093  34.2978907  61.2548733
  44.7895670  35.2443314  61.3440609  45.8130503  34.1890144  60.9838200
  59.9735117  26.6066933  77.9695225  60.5215311  25.9093571  78.3295584
  60.5275106  27.0333338  77.3158407  54.3685759  73.3617468   2.0943463
  54.3412484  73.7513812   1.2204563  53.6378301  72.7435644   2.1039211
  57.9969978  39.5341086  14.8532891  57.1144915  39.4404221  14.4946277
  58.2033920  40.4621744  14.7422409  55.0342941  54.0496731  66.6605473
  54.0995264  54.0074587  66.8621874  55.2604103  53.1610727  66.3857746
  20.2913308  39.5517182  53.2379723  20.4970503  40.4865026  53.2286358
  21.0285664  39.1488028  53.6966372  19.3931162  61.2827635  42.4779320
  19.8766315  60.9790468  43.2461739  18.5063207  61.4426279  42.8008366
  42.1613693  40.0377655  80.8777809  43.0601072  39.7843242  80.6673717
  41.6780663  39.9056077  80.0621891  36.0375953  19.6453035  31.6379404
  35.5678964  18.8112748  31.6413379  36.1775708  19.8451257  32.5635266
  43.1740808  35.2808213  84.8456097  42.6125717  34.6888328  85.3460979
  42.8188229  36.1524034  85.0198841  40.6787014  21.2534475  66.9348955
  40.5970716  22.1601939  67.2304916  39.9086285  21.1106801  66.3845873
  86.3568401  20.4847288  50.6244326  86.9099045  21.2595129  50.5241060
  85.4648781  20.8096385  50.5016947  31.1082006  52.6802444  23.5076237
  30.7552147  53.5698986  23.4952116  31.2233305  52.4553490  22.5843692
  84.2390442  16.0806477  75.7891321  84.7164345  15.8533978  76.5870571
  84.8743534  15.9514618  75.0849152  83.0373573   2.9015374  29.8438215
  83.4005547   2.9733509  30.7265234  82.1160316   3.1411362  29.9436927
  31.6055369  23.2193661  55.3066778  30.7725310  23.5607052  54.9813747
  32.2423792  23.4609413  54.6341419  36.9383550  26.0353422  48.1921673
  36.2497520  25.3731203  48.2515097  37.3840308  25.8441567  47.3669052
  38.3697271  21.0440946  65.3638506  37.6467538  21.6384649  65.5645180
  37.9442716  20.2504063  65.0393820  73.1873608  31.1289787  48.1291580
  73.5284710  31.8461394  48.6635303  72.8511524  31.5562320  47.3413467
 111.0700227  74.3971140   8.2144558 111.9230080  74.8083837   8.3541119
 110.8267260  74.6469767   7.3230469  34.1943145  25.7156920  89.2974091
  33.6271620  24.9446511  89.3055630  33.8566160  26.2688756  90.0018120
 111.8061162  89.7091920  21.0475552 111.9482423  89.7122915  20.1009667
 110.8576489  89.7906048  21.1476147  64.8718071   4.4399756  83.6319923
  64.9979782   3.8194013  82.9142189  65.7005119   4.9160135  83.6854935
  43.6081743   0.0948675  64.8381615  44.2985487   0.1801020  64.1806316
  44.0719414  -0.1309267  65.6444931  51.1908722  18.8480175  77.3540640
  51.3837290  19.5949805  76.7874193  50.4489756  19.1360843  77.8858852
  41.9721508  20.3135395  73.0152464  42.4856377  20.6073260  73.7677431
  42.4747467  20.6040859  72.2541857  34.0407729  47.6905060  77.7257586
  34.5849395  47.7774382  76.9431019  33.1634140  47.9411125  77.4365139
  83.2946014  16.5823746  59.8106861  82.5101852  16.7285943  59.2819691
  83.8223171  17.3700666  59.6792078  39.4283557  32.4213696  29.4522047
  38.5449386  32.1460390  29.2072558  39.5091271  32.1751070  30.3736520
  62.9249096  31.6105604  25.9346724  62.3705673  31.4256787  25.1765490
  63.7474394  31.1588931  25.7457876  24.2555284 103.4163064  76.3339233
  24.3230294 102.6212249  75.8052301  23.7939834 104.0389717  75.7722330
  77.2991323  31.0546637  27.7322936  76.8228626  30.7700872  26.9522858
  77.2367573  32.0096874  27.7158713  77.9394484  26.3399339  40.2833700
  77.9927826  27.0903134  39.6914959  77.5467873  25.6452942  39.7546697
  31.2159514  16.8187296  51.6184235  32.0280361  17.2271287  51.3184834
  31.5010858  16.1382616  52.2282505  45.8047676  20.5657625  26.0508919
  45.1668549  19.8547411  26.1121011  45.5540848  21.0451245  25.2612066
  63.3130836  26.5765691  80.6165886  63.9567900  27.2690868  80.7658958
  63.5312605  26.2291765  79.7517443  92.3907471   4.6179426  77.2167873
  93.0209732   5.0076199  77.8227615  92.8966331   4.4467324  76.4224291
  48.2782507  38.1239080  68.8909245  47.3850346  38.3347058  69.1628838
  48.7979031  38.8775945  69.1704798  92.7163840  98.6670287  13.0329621
  93.1024409  99.3949921  13.5200607  91.7747355  98.8376172  13.0536759
  48.4612417   0.3788021  39.1299820  49.1530037  -0.2813728  39.1732001
  48.6715126   0.9924826  39.8338389  61.9934464  50.4034233  55.6594372
  62.7935314  49.9573851  55.3816891  61.2943792  49.7742128  55.4815912
  44.7245932  18.4950578  63.2717896  44.2844343  18.6076319  62.4292850
  44.0126657  18.4532678  63.9102602  43.4200621  55.1697159  79.8475266
  43.5847902  55.3297043  78.9182806  42.5051022  55.4202843  79.9751854
  69.6365929  21.0453439  60.4019356  68.7099028  21.2650394  60.4979134
  70.0030994  21.7694545  59.8944235  47.5381524  86.4083440   8.1248676
  47.9371358  87.0946915   8.6596310  46.9780464  86.8801506   7.5084984
  69.2652226  72.6746233  27.7306759  69.8105336  73.2872398  27.2371494
  68.8421012  72.1374340  27.0608723  75.7719517  29.0807462  70.0868416
  76.1106443  29.0820074  70.9821177  74.9693823  29.6002865  70.1336527
  25.8238459  47.7413940  63.7944031  26.3582206  47.2767830  63.1503439
  25.1682639  47.1002388  64.0689373   6.0354483  24.5069599  54.1705561
   6.0563290  25.4374266  54.3942213   6.6393209  24.4244361  53.4324789
  73.2212257  24.4848776  61.0409880  72.3504257  24.1304612  61.2207937
  73.7332058  23.7285137  60.7545948  81.5225410  17.0952833  28.1445694
  80.8675671  17.5294638  27.5979996  81.4084435  16.1629736  27.9601431
  71.8130493   3.0602106  40.1422405  70.8821106   2.8565556  40.0522137
  72.1339703   2.4326646  40.7898760  61.5981340  20.6889439  50.7793522
  60.8949661  20.0498438  50.6638861  61.1622477  21.4627457  51.1363792
  24.5297241  26.1910033  73.0492973  24.3852854  25.3917027  73.5557461
  25.0140953  25.9006143  72.2764492  62.5974178  36.6080856  50.2560091
  62.7295208  36.1176133  51.0673141  61.7904758  37.1014786  50.4030991
  24.2909578   5.1041777  18.3507740  23.9949563   4.1950590  18.3048165
  23.8669017   5.5320293  17.6068985  84.7249317  31.8077207  57.1512270
  85.0209808  31.1349487  57.7643871  85.4985142  32.3506713  56.9995594
  70.1639032  34.8596311  47.0565796  70.3478241  34.6528125  46.1402655
  69.2714214  34.5442390  47.1988344  85.5954933  25.9882975  25.2856088
  85.0634098  26.7689204  25.4396772  85.0035191  25.3778434  24.8461246
  79.0917397   8.3318526  78.9900160  78.7549257   8.8608932  78.2668924
  78.3750057   8.3088315  79.6240473  31.0926080  35.3007197  29.4281268
  30.2854323  35.8152008  29.4251657  31.0132504  34.7350216  30.1961899
  59.2188931  37.9267049  68.0540609  59.7072935  37.1037984  68.0768967
  59.6367931  38.4340215  67.3581982  62.8371000   5.7316113  50.1119900
  62.6859283   4.7888714  50.0440121  62.9808092   6.0168183  49.2096424
  17.6756442  73.5533714  68.5462475  17.1368706  73.4345102  67.7640533
  17.6187289  72.7156591  69.0058470  38.1223249  33.8883638  21.6964602
  37.8779864  32.9690218  21.8029642  37.2877574  34.3503571  21.6171384
  27.2701669  32.0894718  63.5338831  26.5142322  31.6684556  63.1245661
  26.9872975  32.9905748  63.6895418  71.1875200   7.6376969  36.3901973
  71.6777754   8.2861310  35.8848071  70.5313206   8.1491661  36.8635178
   2.0915651  22.1734524  37.1888661   1.4258488  21.9061470  37.8225851
   2.8808567  22.3086190  37.7132511  47.5967455  38.5965443  55.4479790
  47.7591610  39.4637704  55.0767994  48.4596872  38.2896185  55.7261229
  44.0101099  27.8962708  55.7500362  43.3485603  28.4008288  55.2767467
  43.8607454  28.1099916  56.6710424  85.8438254  37.0637901   4.5507252
  86.6716195  36.6359301   4.3318188  85.7511330  37.7554758   3.8955795
  63.3693743  17.5453115  50.1926947  62.9209280  17.0992386  50.9111261
  64.2905903  17.3095000  50.3021908  34.5334983  12.3962224  58.2008505
  34.5389080  12.7422190  57.3083878  34.0163350  11.5928280  58.1431341
  63.7108517  31.1999989  62.8579807  62.9484510  31.2865067  63.4302521
  64.2358351  31.9796705  63.0389118  54.9428463  18.2177460  26.0240793
  54.8275852  17.4145746  25.5162787  54.0798855  18.6318386  26.0164738
  76.8728329  74.6194036   4.9051678  77.2344590  74.6124585   5.7913983
  77.2790480  73.8670571   4.4748223   9.3916428  11.9368589  51.5424776
   8.5261846  12.1850502  51.2174940   9.7303605  12.7322710  51.9533539
  44.8037291  29.2034888  45.5105829  45.4125929  28.6045194  45.9427309
  44.4221020  29.7137022  46.2249184 110.6523037   6.6131711  57.0213556
 110.7567501   6.1560017  56.1868954 109.7480202   6.4356476  57.2801733
  37.3428464  24.1132593  52.3041630  36.4196181  24.1012859  52.5566292
  37.4759078  24.9815249  51.9238424  51.2991333  29.2178822  43.1546211
  50.6148481  28.9284992  42.5510931  52.0693445  28.7066388  42.9063559
  50.0898838  45.7104111  58.5829496  50.3302860  45.5577469  57.6690960
  49.6847725  46.5776587  58.5823727  58.5511160  25.6820202  58.4803152
  58.4631443  25.8156490  59.4240475  58.2401752  26.5000677  58.0925703
  32.7814507  43.2515526  60.6845045  31.8674850  43.2785416  60.4013586
  33.2613325  43.6995220  59.9878931  47.9372740  18.5481656  62.1100712
  47.7475214  17.9739106  61.3681459  48.6825132  19.0747082  61.8209314
  73.4117580  87.8210933  13.3614170  73.2048775  86.9060214  13.5513508
  74.1913987  88.0041916  13.8856899  50.9599876  53.6025715  68.6389685
  50.9870863  54.3499517  69.2363977  50.4465199  53.9111996  67.8924227
  47.3129749  46.0728359  56.8035269  47.8329897  46.6668844  57.3447466
  47.9293776  45.3911972  56.5358496  54.1491508  37.7083778  83.1596184
  54.7117662  38.3997512  83.5084724  53.8146877  38.0643249  82.3364067
  19.9087477  29.9481535  59.4242573  19.2517686  29.2524147  59.4479275
  20.0173712  30.1434374  58.4935093  50.6186628  21.0242271  70.0874233
  50.1178932  21.2171102  69.2947912  51.4855862  21.3933253  69.9187756
  52.1932077  22.0323634  63.2395267  52.7164125  21.2709260  63.4899330
  51.2892342  21.7689610  63.4118032  53.9256382  45.1853180  54.8181248
  53.0607796  45.5940247  54.7832346  54.4335079  45.6418085  54.1473675
  40.5013609  32.0012093  84.0864468  41.0888338  32.1740437  83.3507538
  40.9118032  32.4432278  84.8296738  51.6775131  42.6425314  64.4672203
  51.2089586  41.9908857  63.9456415  51.3221836  42.5429201  65.3504229
  64.4710922  12.3501074  63.2176495  63.9916182  11.9335961  62.5015116
  65.2902269  12.6435244  62.8186989  73.3977795  30.1629019  36.8787146
  73.1832743  29.7530413  36.0407209  74.2181206  29.7479105  37.1452808
  61.5394306   9.9622828  59.1684914  61.1648321  10.3451955  58.3752155
  62.2492361   9.4032347  58.8524628  45.5012846  41.8526745  54.4737625
  44.7937679  41.2136459  54.3883419  45.1032114  42.6858711  54.2216825
  60.3579044   4.7738522  57.1318197  59.8101330   4.0347871  57.3963213
  61.1556387   4.6790582  57.6522684  49.1902256  28.2745910  45.8414221
  48.2767248  28.0518508  45.6621456  49.2506170  28.2873511  46.7966318
  40.8978319  38.2943630  62.9890585  40.5200386  37.4261642  63.1295300
  40.1537609  38.8415360  62.7376795  30.8014631  33.7985015  50.0115871
  30.4718351  32.9118109  49.8654413  30.8527517  34.1822743  49.1361904
  56.0554838  20.3438449  90.2826786  56.2757492  19.9969327  89.4181728
  55.3269720  19.7992170  90.5808067  53.9059830  24.7694182  78.2863188
  53.4735632  24.6097255  77.4474287  53.2416439  24.5581865  78.9422655
  11.2846612 107.0117363  51.7164660  11.7255448 106.6953345  50.9279633
  10.5836629 106.3781631  51.8694973 100.5718062  88.6950029  66.1842918
 100.4448221  89.5721961  66.5457344  99.7428486  88.2456995  66.3491869
  49.0826750  48.2279301  35.0333214  49.6793127  47.4974394  35.1965404
  49.1133499  48.7464714  35.8373165  45.0058794  58.0366230  63.6588955
  44.3623734  58.6110258  63.2439327  45.6585884  58.6333275  64.0251589
  50.2009249  20.4794312  50.2936935  50.9537411  19.9787974  50.6081200
  50.5487299  21.3554025  50.1265478  14.6632671  99.6382690  63.1406307
  14.0674638  99.8326958  62.4171352  15.2565526 100.3888298  63.1706333
  27.2698355   9.2266303  90.0518799  26.8515706   8.8122129  90.8065605
  28.0847907   8.7390673  89.9320316  76.1190128  19.3963981  64.3204260
  76.9569635  19.1815770  64.7302055  75.6095600  19.8079741  65.0184965
  24.7861600  12.9076231  35.3962684  25.3813243  12.1720326  35.2516389
  24.5415568  12.8399169  36.3192081  34.9350929  45.8726215  42.7704668
  35.8892941  45.9480762  42.7766705  34.6418238  46.4876127  43.4427834
  26.6996121   6.6243583  29.9804854  26.4057541   5.7647204  29.6789861
  26.2314510   6.7622882  30.8039141  54.7467375  34.1242456  55.5345011
  55.2660513  33.9717841  54.7450066  55.2228546  34.8077321  56.0060835
  15.3342294  98.1166369  61.0941696  15.0959396  98.5616035  61.9074726
  14.8249625  98.5639775  60.4183245  34.1627526  40.9293365  60.3967047
  34.6794033  41.0908842  61.1861420  33.5742807  41.6819429  60.3374147
  99.3334529 103.6832753  59.6330261  99.3583438 102.7264116  59.6281195
  98.8121889 103.9132590  58.8638592  61.4002752  32.5187349  61.2956095
  62.1439362  32.0845747  60.8776379  61.7922497  33.2287216  61.8040419
  54.0029907  29.8490167  64.2409420  53.3455563  30.2715993  63.6882877
  53.6512804  28.9740467  64.4051361  36.2506580  33.7399220  60.0767183
  35.9263968  34.3195653  60.7659912  35.5079365  33.6362839  59.4818544
  62.5173855  32.7261686  87.1861744  62.8581381  33.2004094  87.9446030
  61.7325497  32.2855973  87.5119972  86.8271065  15.7595778  34.5796347
  87.7517128  15.8044147  34.8232174  86.4439297  15.1454937  35.2059770
   7.3610543 105.3868597  48.2371664   7.6682185 104.5457577  48.5754347
   7.1155929 105.2049614  47.3300314  57.6041698  23.3015299   6.6594023
  57.2035122  22.5403881   7.0793647  57.1686554  23.3629012   5.8092302
  26.2301493  32.7358985  27.3200059  25.9828568  33.2628846  28.0798507
  25.8699751  31.8681145  27.5029111  63.6376190  26.1539054  60.8190918
  63.8578844  26.5918303  59.9969387  63.0939007  26.7861557  61.2890482
  59.6950722   9.4663912  36.9106507  59.2175722   8.7304187  36.5278101
  60.4146481   9.6283889  36.3005710  54.0762615  22.8074431  33.9776659
  54.7637272  22.2551751  33.6053419  54.5141029  23.2991934  34.6724415
  58.5284853  21.9784141  33.4340596  59.0473652  21.5141964  32.7771759
  58.4768009  22.8766799  33.1074429  77.0756197  24.0380645  54.1558599
  77.0226049  23.0972910  53.9874458  77.9550791  24.2836142  53.8686609
  55.9321117  28.8677549  59.1238880  56.8692875  28.8719988  59.3185997
  55.8792639  29.0960836  58.1958199  25.6057596  15.0608134  19.9544740
  24.8744059  15.5470312  20.3351951  26.3862276  15.5178642  20.2678514
  69.3654966  12.6549137  19.6740782  68.5240507  12.9476309  19.3240535
  69.4418430  11.7455828  19.3850803  55.1897049  32.8645682  39.4011092
  55.1699400  32.8608918  38.4441209  56.0799456  32.5919557  39.6233344
  64.7457457  29.3287444  74.6459579  64.8828697  30.2226186  74.9596691
  65.6034708  28.9118624  74.7280741  65.8172274  13.9971137  28.5462260
  66.0660648  13.7717783  29.4426274  65.1593542  14.6852028  28.6460614
  46.5677643  34.7739816  47.5691748  47.3243904  34.4803238  47.0617199
  46.9275045  34.9988031  48.4272385  56.2849855  12.7577543  89.4405556
  57.0568562  13.2503426  89.7194862  55.5593777  13.1580901  89.9195671
  11.8528485  46.9918489  37.1991158  11.6681528  47.3246479  38.0773902
  11.5502775  47.6846075  36.6119480  28.9355373  51.3241959  73.9237356
  29.4774508  50.6102276  73.5878563  28.8168883  51.9077826  73.1743526
  23.7555051   5.9203529  58.9539719  23.2053828   5.2497685  58.5491085
  24.5435309   5.9435242  58.4110975  40.4964924  37.8658295  51.3802433
  39.8421931  38.5467315  51.2237358  41.2562466  38.3376241  51.7214489
  53.9160012  99.7623051  83.7520027  53.7560319  98.9489502  84.2306423
  54.8676728  99.8642451  83.7643051  80.4472733   7.2090745  64.2153025
  81.2862110   7.6048481  64.4514704  80.3008461   7.4808407  63.3092499
  34.1858029  21.5288019  60.2410889  34.6613622  21.9673085  60.9466314
  33.9115047  22.2383094  59.6600628  47.8250646 105.2406586  78.9412355
  47.4330091 105.5605393  79.7537661  47.2512864 104.5266754  78.6633110
  23.6347579  98.3991021  70.2436829  23.2739305  99.2158783  70.5885172
  24.2490577  98.6766977  69.5641184  69.3257475  41.1097002  59.9338055
  69.7499084  41.7769527  59.3942738  69.9206734  40.3605986  59.9000168
  34.1228962  33.8053513  69.1301107  33.6562753  33.4249067  68.3859634
  35.0461769  33.7623286  68.8812447  52.1873236   2.9291558  74.3932629
  52.8755140   3.4146857  74.8481083  52.4362803   2.9691315  73.4698677
  33.2068706  12.4486613  49.6936560  32.8853655  12.0042467  48.9092064
  32.4637103  12.9717875  49.9941254  80.6131935   3.2086325  45.9415245
  80.7328224   4.0819612  45.5684090  81.4936352   2.9357469  46.1995459
  30.5591035  19.0553677  71.7133904  31.4134026  19.3568981  71.4043856
  30.5242205  18.1332338  71.4590597  37.6139474  11.8102205  90.8145428
  37.7792025  12.1525991  91.6930103  36.8435836  11.2512815  90.9163284
  62.4525309   1.1829820  60.2864695  61.9182682   0.4468600  60.5846643
  62.0107365   1.4951846  59.4967985  51.4556885  25.6236434  59.2765331
  50.9411812  24.9602985  58.8166571  52.2968245  25.1993704  59.4459963
  72.7899981  34.2319965  48.3855295  72.6558399  33.7141085  47.5917864
  72.0287085  34.8108625  48.4253550  65.2459526  29.7398520  66.3482761
  65.2189398  30.6937218  66.4233208  65.5215788  29.4391823  67.2142172
  51.4380693  47.3475885  54.3456268  50.4888058  47.3442793  54.2226553
  51.7613554  46.6877747  53.7321472  77.3713732  14.0856016  66.2141466
  78.0541325  14.5974994  65.7805204  76.5764999  14.2759073  65.7159519
  55.6592464  35.7884908  62.4130726  56.0147524  36.0347342  61.5591383
  55.5090857  34.8454475  62.3470974  47.4668026   3.7868303  46.5800667
  46.7377281   3.2744813  46.9296122  47.3156357   3.8046816  45.6350470
  60.6800412  70.0321484  20.7818675  60.7030915  70.1381326  21.7329025
  61.1879300  70.7707930  20.4461741  26.8669820   2.2244702  80.7531548
  25.9931707   2.2106439  81.1436558  26.7520857   1.8172696  79.8945427
  92.2528839  19.6542478  92.0972252  92.9061985  20.2773595  92.4152660
  92.7289200  19.1052186  91.4741802  54.8031282  33.2478738  62.1453619
  54.3023109  33.0875516  62.9451799  55.1249266  32.3841739  61.8870926
  55.9380913  42.8928995  25.3217936  56.2107134  42.1302652  24.8116016
  56.7425489  43.2028198  25.7377553  23.7914205  21.1765504  63.7311745
  24.0382576  21.0378098  64.6455336  23.7575865  22.1282005  63.6339712
  16.6014421  35.3773713  45.9475899  17.3745394  35.9160137  45.7790184
  16.8202960  34.8852730  46.7389011  57.5160074  12.8160596  48.7300444
  57.6405859  13.5571408  48.1371641  57.5360394  13.2034242  49.6051311
  12.7769709  11.1609864  81.6199970  13.7322462  11.1374664  81.5640831
  12.5302696  11.9669700  81.1663914  21.2661171  29.0501523  83.7441444
  21.2341213  30.0026417  83.8334370  22.1850872  28.8577962  83.5577965
  14.1365813 100.4105187  45.8960867  14.7694062  99.9331135  46.4326048
  13.3474540 100.4517943  46.4362812  47.5874853  34.3467832  61.2029362
  47.8164101  34.2447948  62.1267462  48.3835649  34.6876216  60.7951212
  59.2715693   8.3549827  45.4554749  58.7175369   8.4628618  44.6824026
  58.6713791   8.4486061  46.1952305  67.0648432  24.5107603  55.9601641
  66.2585831  24.1495323  56.3285255  67.6647663  23.7659454  55.9204960
  59.7739124  24.7585297  83.4396458  59.6861649  25.5298138  82.8796005
  59.0664482  24.8447680  84.0786171  36.0659218  12.6265013  64.3387604
  36.8875718  13.0517888  64.0932941  36.3033795  12.0460439  65.0618887
  57.1657085  35.9323573  67.0612288  58.1001997  36.0818124  67.2048378
  56.9766140  36.3754988  66.2341261  69.3604231  36.7051101  89.6363640
  68.7932396  37.4337602  89.3841648  70.2248716  36.9487834  89.3053341
  68.5843563  39.8898745  40.6829882  68.9525461  40.4292727  39.9831939
  68.0797148  40.5028772  41.2175846  87.6228905  20.8041334  68.1452703
  88.3799744  20.9809184  67.5868893  86.8978786  21.2592340  67.7169228
  81.8381023   9.6440923  54.4868946  82.5974655   9.6604425  53.9043760
  81.0943127   9.4829494  53.9063406  21.0135627  15.1541507  38.4126282
  20.1268244  15.0121737  38.7439442  21.1860085  14.3943322  37.8565955
  41.7337990   7.2969985  33.5152316  41.7288256   6.3405257  33.4782648
  40.9638977   7.5601834  33.0110335  44.4357395  20.6429410  92.2216988
  45.1141930  21.3148355  92.2887039  44.5912552  20.0698185  92.9724121
  35.3397250  39.2169356  71.9525766  35.7980156  39.8457289  72.5100899
  34.9987197  38.5613942  72.5610256  45.3820467  41.6628790  83.9100075
  44.7497416  41.4344692  84.5913601  45.9668112  42.2949362  84.3280792
  31.3430691  15.3270292  29.7904062  32.1779442  15.5831516  30.1823449
  30.7542610  15.2102673  30.5359983  14.1869986  61.2406063  75.8296728
  15.0569129  61.2988949  76.2247467  13.8853765  60.3577614  76.0437679
  61.4399242  30.1718616  58.5057926  60.7517242  30.5044746  59.0819693
  61.9217348  29.5449352  59.0452862  26.4441252  46.3578320  79.3624783
  25.9431720  47.1648121  79.4810677  25.7967687  45.6585693  79.4529915
 100.9693290  67.3388667  11.4821732 101.5259553  67.4107034  12.2575676
 101.5827180  67.3248692  10.7474720  40.8696365  29.8073053  53.5467768
  41.2317276  29.8772025  52.6634645  40.6800842  28.8753080  53.6548710
  54.4963503  40.7773685  61.4565802  53.8455820  41.4746571  61.3758469
  54.0924263  40.0221157  61.0291815  43.9115238  56.0694695  77.1358681
  43.7381792  55.2639246  76.6487503  44.8636770  56.1643648  77.1107578
  27.0491695  35.6752586  56.7394543  27.3783970  36.4396334  57.2122908
  27.7935314  35.0742960  56.7078066  66.3140369  44.8970379   1.3188660
  66.3915015  43.9906557   1.6166985  65.3987456  45.1251729   1.4814388
  62.9157019  52.9599905  54.5187569  63.5428905  52.7366257  53.8310194
  62.5662518  52.1168518  54.8072624  57.5094843  43.1786442  59.3813515
  56.9059372  43.0701208  58.6463785  57.4132586  42.3741913  59.8910856
  59.8946333  51.2278366  57.6662636  60.7879829  51.5679789  57.6165819
  60.0037909  50.2835369  57.7785683  17.7348983  43.9076710  54.9186707
  17.4080181  43.6434746  55.7786608  17.5618172  44.8480892  54.8752022
  55.1759911  49.9221754  54.6506119  55.7411671  49.7937107  55.4123878
  54.3029022  49.6756315  54.9558401  80.1808643   6.6559368  34.4974542
  79.3340588   6.6071153  34.9410343  80.8016491   6.8808973  35.1904607
  36.3913488  56.0494471  78.1401634  37.2190666  55.6782913  78.4457159
  36.1437917  56.6753531  78.8207436  52.2811937  38.6432767  56.2029886
  52.8568172  37.9110742  56.4238262  51.8624401  38.3800197  55.3834963
  71.6587496  42.6686525  89.8612785  72.1766329  42.3268890  90.5901337
  71.2568998  41.8935823  89.4688225  36.0780621  45.3467417  71.9329882
  35.6761932  44.8861170  71.1963987  36.4033771  46.1640596  71.5556383
  55.2143526  42.5688839  54.7778654  56.1685276  42.5189400  54.7205400
  55.0116301  43.4877682  54.6023941  62.2443247   9.8292053  36.0007286
  62.3427582  10.6817484  35.5768037  63.0653048   9.3733019  35.8153081
  77.1367979  21.3164163  57.1786499  77.2926140  20.9389997  58.0443954
  76.8441105  20.5779481  56.6445827  67.3733854  28.0507159  74.7896862
  68.2588768  28.2714939  75.0784636  67.5018692  27.5536799  73.9818001
  53.7522221  21.4962983  73.4243822  54.5368433  21.9993448  73.2063532
  53.9475727  21.1048603  74.2757654  57.8795767  42.5555086  54.3229866
  58.2730818  42.1661329  53.5421085  58.5122824  42.3846245  55.0206327
  18.2526278   8.4913331  87.8263569  17.6559150   8.4130043  87.0820236
  17.7631593   8.9993912  88.4732914  69.5510530  31.5876055  46.1923838
  69.4460011  31.7333674  45.2521992  68.8057995  32.0383954  46.5893936
  37.8308964  28.7907434  61.7434883  37.2260523  29.0301394  61.0412884
  37.6903796  29.4555593  62.4176598  73.2574987  56.2015104  58.2153463
  74.0654230  56.6544056  58.4569502  73.1904459  55.4807901  58.8416815
  97.6507854  50.9327459  50.3763103  98.5593128  51.1623001  50.5715418
  97.3865604  50.3644514  51.0998106  92.2754955  59.6301174  46.7472744
  92.3569870  59.9844122  45.8617973  91.4705086  59.1126871  46.7250729
  80.9093475  88.4937286  71.2387133  80.5381775  88.3580875  70.3668976
  80.1485062  88.6148453  71.8067646 101.2349415  70.5024719  49.8423481
 102.0832157  70.5137157  49.3990326 101.2340736  69.6830273  50.3370619
  96.1320114  61.0394144  52.0059252  96.4691162  60.8521652  51.1298418
  95.5478382  60.3062677  52.1995258  86.6969395  54.7701502  58.0530548
  87.3233604  54.2505312  57.5492525  86.7131138  54.3824720  58.9280844
 100.1426697  62.3624516  62.7419424 100.8776760  62.9213238  62.4896526
  99.8464584  61.9708729  61.9202662  75.3413010  55.7490444  63.3102608
  76.1289883  55.9884214  63.7985992  74.9175882  55.0824738  63.8509846
 106.5716743  71.3736629  81.2130070 107.2485638  70.7617807  81.5022469
 106.1330986  70.9222651  80.4918098  14.1118957  36.0407662  10.3483975
  13.9721061  35.4416704  11.0817277  13.2376911  36.3679576  10.1364195
  77.9281902  68.2632828  37.7163935  77.2172070  68.7645483  38.1157279
  77.6020670  67.3637199  37.6908159  95.8471680  95.8823776  46.3322973
  95.2179337  95.5083942  46.9490814  96.4837170  96.3358307  46.8849421
  78.2258272  81.5748978  63.9969254  78.1106281  81.0204792  64.7686720
  79.1488123  81.4731884  63.7645674  73.9884043  76.1391020  50.5847120
  74.3952608  76.6040516  51.3158178  73.0821514  76.0037613  50.8615208
  59.0452909  80.0006294  63.4878349  58.3851147  80.5846786  63.1146145
  58.6122847  79.1482258  63.5341215  79.6661758  92.3615932  67.0923805
  80.2747631  92.0036602  66.4460564  78.8006878  92.1042728  66.7746449
  79.2738533  64.6880007  62.4215603  80.2288628  64.6412230  62.3767424
  78.9881420  63.7746429  62.4022150  77.9417706  55.3869295  61.4752960
  78.7279987  55.8314514  61.7922878  77.7140522  55.8491850  60.6686401
  71.8008947  61.4204979  46.1053276  72.6383543  60.9880304  46.2722635
  72.0288992  62.3404551  45.9714317 110.7260132 103.5371971  57.2493029
 111.0796738 104.3017578  57.7038431 111.1495686 103.5516644  56.3910389
  69.6888590  73.4906816  46.4569044  70.4314566  73.4396458  47.0587206
  69.5720387  74.4276047  46.2995577  90.9233952  33.4496140  52.0932770
  90.9518528  33.0426335  51.2273693  90.4712772  32.8102064  52.6437092
  85.5801582  63.6692286  46.5176821  85.9373760  63.2292509  45.7462931
  86.3264370  64.1352654  46.8946648  65.1581097  77.2401810  51.8686152
  64.5858049  76.5273333  51.5848017  64.6351480  77.7284956  52.5044584
  58.4416437  85.6604004  56.5797663  57.4867010  85.6101894  56.5373802
  58.6232519  86.5687466  56.8209267  78.1538057  75.1820421  68.7327433
  77.7586937  75.4007578  67.8887749  79.0633821  74.9696112  68.5235071
  51.9896030  94.3770981   0.7453343  51.6190624  93.8599110   0.0301769
  51.6466904  95.2597237   0.6052826  87.4733639  65.2995872  50.6033516
  87.6225758  64.3755102  50.8034849  87.2302341  65.6902075  51.4427185
  19.1827348  20.8197338   6.5372097  19.3635371  20.4309256   5.6814205
  19.2932704  20.0981123   7.1562969  85.5058098  77.8162289  80.2281475
  84.8874187  77.1842766  80.5948353  85.3208065  77.8150988  79.2889977
  65.2616170  42.8738672   5.8035195  65.4760793  43.0023367   4.8795521
  64.8676923  42.0022089   5.8390152  93.6431885  83.9698982  62.8010321
  92.9333782  84.4337368  63.2451630  93.1999111  83.3242512  62.2506905
  94.5987797  73.7635279   7.1220005  95.3511906  74.1417503   7.5770402
  94.9754429  73.0913544   6.5540677  71.0260537  43.5931951  15.2961933
  71.1184457  43.2352621  16.1791241  71.6112760  43.0593187  14.7588646
  71.9596243  82.0234013  76.7460155  71.8789053  82.8838921  77.1574306
  72.7683353  81.6602325  77.1070242  11.2910129  93.9405441  18.8316405
  11.1375286  93.4172916  18.0449498  11.4604999  93.2959938  19.5187068
  50.1217985  87.0626545  56.1231327  49.1942120  87.2933388  56.1740685
  50.1810646  86.4731407  55.3713369 104.7360325  71.2163115  30.1607013
 104.6173859  70.3663492  29.7367620 105.6596947  71.4260244  30.0225449
  12.1302082  74.5147181  44.8923635  11.4544250  74.6912241  45.5468798
  11.7174770  74.7336102  44.0569162  53.6334801  86.4509869  46.4208698
  54.5575619  86.2156677  46.3376141  53.6362076  87.4038792  46.5115499
  80.5191326  85.9347343  51.2498999  79.5655489  85.8516598  51.2484360
  80.6932831  86.7050648  50.7090664  68.1464195  58.4211779  50.9686422
  67.8038359  58.6035824  50.0936604  69.0852737  58.2902813  50.8357811
  63.1275177  82.9716682  63.9994764  63.0583382  82.9165363  64.9525785
  62.5108385  82.3148441  63.6761808  64.8941994  99.1437817  49.6808004
  64.0277004  99.5482540  49.6380997  65.4652023  99.8355198  50.0150061
  89.3040085  68.8348293  54.4839048  88.8449383  69.4454765  53.9071846
  90.1259232  69.2773438  54.6957350  89.1297340  87.0783806  61.9618177
  88.2888603  86.6544819  61.7901325  89.5124435  86.5703392  62.6771212
  89.6869755  96.4209843  63.2743979  88.7349510  96.4814758  63.3532190
  89.8403072  96.2564373  62.3439980 101.9476318  75.8146191  73.6615992
 102.3965073  76.6155720  73.3910179 102.1399593  75.1856565  72.9661512
  84.8326015  90.5829430  46.6453600  85.5549431  90.2373981  47.1698141
  84.1776562  90.8537769  47.2887373  79.6386147  53.9434767  63.4988785
  79.6325541  54.8737144  63.7243748  79.8275852  53.4980488  64.3247795
  76.8929434  59.9479866  34.4648767  77.1928358  60.7158804  33.9784288
  77.3910379  59.2197466  34.0936637  97.8432274  64.9643373  78.0165815
  98.5389900  65.4733229  77.6005507  97.0379162  65.2790737  77.6059198
  64.9294996  91.2189293  57.5927687  65.7066965  90.6872463  57.7645588
  64.8479843  91.7801189  58.3639050  99.4339752  70.3248405  78.8150167
  98.6390781  70.3579617  78.2827854  99.1281891  70.0748205  79.6869183
  45.7031536  91.7380524  64.6701527  46.0576200  91.0618305  65.2474785
  46.4432335  92.3213005  64.5018101  83.4468651  69.1776419  74.7654486
  83.5558796  69.9859476  74.2644644  84.1424274  68.6025524  74.4465494
  63.7670469  87.8380489  59.6410179  64.1518259  86.9642353  59.5729828
  63.7416983  88.1594276  58.7397385  96.1496830  54.8498774  51.2039471
  96.5849209  54.7383356  50.3587532  95.2278423  54.6643877  51.0249662
  74.7669077  95.4910851  60.5096149  73.9595747  95.8933640  60.8299541
  75.4658079  96.0371685  60.8695745  69.3979883  89.1141796  75.0489807
  69.3797684  88.9825726  74.1010475  69.6325731  88.2573032  75.4052925
  89.5259476  64.3646526  40.2137136  89.9622345  64.1096830  41.0266590
  90.2412701  64.5820475  39.6159863  54.8215917   3.9092190  11.6426193
  54.3360570   3.2325966  11.1707413  54.2275956   4.6595222  11.6638004
  98.5625648  89.6443176  23.1551123  99.1949844  89.7441387  23.8666677
  99.0685272  89.8110104  22.3598433  84.7141647  83.2574081  45.9298229
  84.4166470  83.8164806  46.6475630  84.5903778  82.3653126  46.2539768
   6.8765689  57.6202440  29.9482465   7.1091224  57.3155785  29.0711308
   7.3207809  58.4637356  30.0344157  25.7099584  38.6819059   1.0494244
  25.9256223  39.5973284   1.2275421  26.5581277  38.2406885   1.0029041
  52.7268887  91.0069466  69.7723913  52.6220560  90.0847721  70.0065470
  51.8584204  91.2789536  69.4757271  26.9099475  45.6671000  62.2915411
  26.5133049  45.6802273  61.4204884  27.4722244  44.8924589  62.2870302
  92.9025078  60.6304169  31.5114474  93.6309814  60.2975416  30.9872770
  92.9715157  61.5824604  31.4401269  56.7162943  86.7122555  62.0971489
  55.8597803  86.4854622  62.4593353  56.7196465  87.6690960  62.0712185
  74.5759869  97.8458691  66.3531828  74.9507284  98.6909580  66.6014338
  73.6787462  97.8748703  66.6853762  74.5432472  79.1971207  63.7055779
  75.1932049  78.5388708  63.4596157  73.7455559  78.6952162  63.8729668
  97.4389076  64.9193287  72.5464439  97.3902225  65.2495909  73.4435415
  98.3363819  64.5985651  72.4576807  78.5792637  65.5394602  87.8178883
  79.0499592  66.0184193  87.1357822  79.1562557  65.5799246  88.5805607
  93.5412884  70.8043289  57.4850416  93.8078403  71.7205954  57.4099159
  93.7950039  70.5531263  58.3731651  62.9890060  79.9321318  42.1800756
  62.5723410  79.1769743  42.5952291  62.8608418  79.7907734  41.2420845
  85.4905129   9.7340869  54.7428131  86.3537217   9.3868255  54.5180702
  85.1981307   9.1928768  55.4761791  59.8673391  84.1526031  29.9962354
  59.1835690  84.5819759  29.4821072  60.6198359  84.1104317  29.4061494
   0.5103923  99.7528458  79.0443277  -0.0245808 100.1383972  79.7381449
   1.3887836  99.6993828  79.4208956  59.0232992  92.0182037  71.7227077
  58.1650782  91.7646885  71.3829803  59.2028952  91.3841820  72.4169683
  72.6556158  56.1056232  61.4906311  71.8319893  56.4578533  61.1532831
  73.2784414  56.8271780  61.4030027  16.3651659   4.4654273  43.7635136
  17.3156359   4.3558883  43.7343264  16.1817362   4.7262191  44.6660471
  77.9955292  49.3620634  67.5790644  77.5832319  48.7698460  68.2079697
  78.5073233  48.7878513  67.0093393 105.4733372  91.4831066  52.0552874
 105.3719044  91.3742542  53.0008554 104.6554852  91.1492252  51.6866636
   6.2737991  56.5766954  14.5538998   5.4629089  56.8288279  14.1121745
   6.2886192  57.1088171  15.3494227  71.3638544  69.6773529  43.5932922
  72.1213627  69.5289040  44.1593075  70.9324455  68.8244295  43.5419130
  74.3324518  96.3859272  30.0263762  75.2353954  96.1198902  29.8527288
  74.3288994  96.6318226  30.9514451  75.1222610  61.1972332  16.4644480
  74.7569466  61.6859579  15.7269371  75.1597214  60.2916479  16.1566472
  57.1792698  70.5545616  56.7419481  56.5458441  71.2574053  56.8869114
  56.8384600  70.0772476  55.9854746  97.8453922  36.1993146  48.8535261
  98.4598732  35.6673384  49.3591404  97.6719093  35.6822515  48.0669022
  82.4017239  98.4783077  52.7553892  82.4128151  98.2484531  51.8262625
  81.7892361  99.2115974  52.8134203  99.4660473  82.9588127  21.7554212
  99.5284176  82.8435230  22.7036047  99.3302250  82.0745373  21.4150524
  83.8729477  68.1567955  58.3283710  84.6214485  68.6638451  58.0139065
  83.3710003  67.9557610  57.5385189 105.6524181  45.1579762  11.4460802
 104.9608040  44.8834085  10.8439898 105.3908730  46.0346937  11.7274892
   0.7891323 103.7523174   1.5883216   0.0691082 103.3516693   1.1012134
   1.5055801 103.1213474   1.5189201  88.1905651  61.6435528  40.9775019
  88.8937950  62.1071434  40.5227757  88.3070660  60.7269764  40.7274008
  67.6996040  56.7259836  56.6255379  66.9689322  56.9399643  56.0453987
  67.3857355  56.9547319  57.5004053  86.4212036  62.8347778  54.8224020
  87.3751259  62.8959274  54.8726749  86.1073494  63.6344147  55.2446699
  77.8022909 100.8931351  50.4796982  78.2174683 100.9801483  51.3377714
  77.8065443 101.7803669  50.1204872  73.7911320  59.9998236  81.0087013
  74.3170023  60.7995796  81.0176563  74.3103027  59.3662405  81.5039444
  93.5591221  53.3691978  63.3730268  94.1928101  53.3040524  62.6585865
  93.1229877  52.5172091  63.3847666  64.8496675  75.4413939  14.0688527
  65.3935003  76.1277866  13.6824012  64.3103933  75.8981419  14.7144496
   7.4815609  65.0134039  24.7731066   6.7922832  64.9078417  24.1173697
   8.2044746  64.4759846  24.4493604   1.4631034  62.5990582  52.7027655
   1.5989639  62.0512629  53.4758759   0.5329944  62.5000381  52.4995136
  74.6556139  55.1326847  18.0123389  75.5804682  54.9162006  18.1306946
  74.6629620  55.9856176  17.5779605  46.5174866  86.8875790  71.1926317
  46.7281723  87.8077984  71.3508987  47.3532009  86.4307117  71.2879515
  72.0903873  74.9221849  52.0149183  72.3344040  75.0192213  52.9353952
  71.4473772  74.2131329  52.0110655  52.8339195  93.5115337  43.3475018
  52.0238161  93.0402660  43.1528711  53.4228659  93.2825565  42.6285124
  51.0416842  79.3525362  44.2644072  50.7702875  79.4330359  43.3500290
  51.7336607  80.0058556  44.3672657  87.5981331  50.8212948  65.9033918
  87.1371651  51.2384892  66.6311884  86.9808960  50.8639050  65.1730204
  97.2411442  58.0940771  52.0174599  96.9510460  57.3963737  52.6050663
  97.6937294  58.7151289  52.5881529  65.8066940  78.4696007  40.8211613
  65.5866480  78.2922840  39.9066305  65.7312727  77.6196003  41.2548018
  80.4053071  12.5260860  19.2822086  79.5165971  12.1721298  19.3160546
  80.4168943  13.0693657  18.4942162  64.2485046  73.0653238  61.0162258
  64.4517803  73.1346130  61.9490242  63.8623667  72.1948481  60.9192610
  85.2207184  56.8758059  59.9191141  85.5193138  56.0433531  59.5529222
  85.5334282  57.5356340  59.3001890  63.7012768  97.4559879  70.1538849
  64.2881775  97.4386597  69.3979216  63.1881046  96.6516209  70.0771809
  87.4370480  83.8476086  31.6100907  87.7229881  83.5311508  32.4670124
  88.2397842  84.1529083  31.1874342  97.5784636   3.9835739  59.6582413
  97.4477197   4.8406124  59.2524910  98.4377910   3.6995983  59.3465519
  78.6373997  78.1154156  41.3191414  78.9514256  77.6506710  42.0947933
  79.3879986  78.1246376  40.7252169  92.3683453  55.0796223  70.0138950
  93.2864666  55.0067139  70.2745962  91.9229603  54.3936205  70.5111599
  83.2473373  64.7764349  66.2329435  83.5195923  63.9407301  65.8538580
  82.5365734  64.5475578  66.8318272  73.5546207  78.5433006  44.8955202
  74.1566563  77.8601265  44.6004629  73.4480333  79.1137314  44.1342878
  61.3358212  96.4268589  32.5841165  60.6025314  96.3217354  33.1903028
  61.4660406  97.3734760  32.5275970  42.7549794  36.6947348   7.1814453
  43.4348253  37.2016222   7.6254093  43.1066278  35.8053381   7.1420204
  57.0780182  76.8739414  69.3425226  56.4833593  76.3614225  68.7948608
  57.3963308  77.5683212  68.7656879  65.3909492  70.7009411  67.5756216
  65.1117039  71.1284399  68.3852482  66.3101339  70.4802322  67.7260208
  43.0285454  97.1149445  39.4106126  43.0046558  98.0378056  39.6635580
  43.6457300  97.0828438  38.6796641  39.6561265  98.0824375  52.9011631
  40.4794359  97.6763058  53.1721830  39.3247747  98.5042572  53.6939478
  50.6495094  84.0773010  20.8971715  50.4496050  84.3330479  19.9966919
  51.4692163  84.5289230  21.0980630  96.6109848  45.1179695  68.6602211
  96.3371944  44.9363899  67.7611637  96.8097973  46.0542774  68.6655760
  77.4086809  66.8202257  75.3423023  76.8350697  67.1778631  74.6645880
  77.6546526  67.5783062  75.8724451  63.3149624  80.2894783  50.8999062
  64.2596722  80.1788425  51.0071898  63.0110455  79.4446898  50.5679417
  88.4966469  85.6100559  59.0080738  88.5907936  86.3523960  58.4111691
  89.3851852  85.2680969  59.1070271  85.2228260  67.7824354  49.4224739
  86.0447693  67.3609781  49.1714621  84.8389149  68.0708551  48.5944271
  52.7061987  66.1742401  24.9679399  53.2279396  65.4361200  24.6529794
  51.9911814  66.2490892  24.3359780  39.6706939  76.1522055  55.3148460
  38.8376093  75.6808615  55.3209972  39.4645047  76.9978380  54.9165726
  17.4324801   2.4375533  50.3364134  17.7437785   2.9924297  49.6212626
  17.8298285   1.5833282  50.1671743 110.9676266  58.6614180  43.9619350
 111.1118317  59.5296812  43.5856962 110.8379555  58.8237953  44.8963070
   2.9917003  48.8601971  50.5232525   2.1054699  48.8936234  50.8834076
   3.5611774  48.8211775  51.2916279  61.9734907  93.8306904  39.0919971
  61.6460896  92.9459381  39.2540383  61.7823601  93.9912987  38.1679273
  93.7117290  64.9579191  81.5059948  94.2441463  64.5001173  82.1565151
  94.2414761  64.9421501  80.7089043  91.2772083  42.1476364  47.4654818
  91.4507103  42.7472639  46.7398262  91.4183903  41.2763262  47.0951891
  45.4794598  92.9136276  76.4076710  45.4752731  92.2639465  75.7047224
  44.5944452  92.8793907  76.7707253  92.0939350  70.3420925  33.7479472
  92.2990036  69.9135780  32.9169536  91.1387634  70.3130531  33.8030958
  95.3855705  49.0404272  67.3157930  94.9563694  49.8757696  67.5007772
  94.9123955  48.6899805  66.5611219  90.3098583  68.1481743  70.1967716
  90.1668644  67.8649712  71.0998631  91.2339687  67.9618740  70.0308132
  70.1905012  69.2938089  52.3424482  69.4042253  69.3719196  51.8021727
  70.7443857  68.6717367  51.8707752  81.4264393  83.4432507  86.0135841
  82.2534561  83.5295296  85.5394173  81.5601349  82.6939011  86.5939522
  92.7581978  71.0235977  63.9695263  92.0288372  70.5643892  63.5531235
  93.4813309  70.9376144  63.3483076  88.6530972  58.3742332  66.6498327
  87.6979542  58.3836699  66.5877342  88.9470673  58.8889790  65.8982706
  16.1443627  81.6893959  58.9512205  16.6941535  82.1531773  58.3196545
  15.2481651  81.8907356  58.6819172  93.5207176  62.8858614  69.9142361
  93.9596272  63.4645939  70.5376673  92.6023388  63.1540394  69.9440908
  80.8869076  88.0860519  38.5813642  80.3607082  87.3352528  38.8563895
  80.5864334  88.8054276  39.1367412  74.7951889  99.6865273  86.4316654
  75.0188303  98.9963436  87.0560551  74.7462702  99.2387581  85.5870724
   1.5194895  13.8303184  35.2242112   1.4513686  14.7832965  35.2826095
   0.6450226  13.5133838  35.4502511  87.3270798  67.9067183  39.1420388
  87.7792931  68.0598021  39.9716806  87.4160671  68.7317657  38.6649561
  84.1603374  49.5528746  69.0295315  84.4591045  49.1979074  68.1922960
  83.4142685  50.1076698  68.8019085  78.7970543  80.1998234  66.3250637
  79.3529701  79.4303656  66.4480639  79.1397667  80.8443451  66.9442320
  36.5605426  82.7392387  70.8982563  36.2136960  82.2794056  70.1337433
  36.8592381  83.5817337  70.5558872  99.8556423  66.5143633  50.7464409
  98.9866161  66.7332840  50.4101372  99.7117138  65.7474422  51.3008308
   0.4190590  52.2446346  55.6290197   0.2972271  52.7919865  56.4047718
  -0.4227684  52.2819233  55.1749659 107.1427441  73.6561680  40.4305029
 106.7157173  73.4496498  39.5990992 106.4270306  73.6913347  41.0651255
 106.2732745   6.5896415  66.5615368 105.7620335   7.3860931  66.4182663
 107.1780015   6.8947410  66.6294575  67.6261234  59.5595312  48.7234163
  68.3707714  60.0469971  48.3711338  66.9280005  60.2100563  48.7986803
  77.2160435  53.9509964  66.5644264  77.6327753  54.7254705  66.1865950
  77.8377104  53.2414150  66.4023972  68.6205673  73.8072443  91.1973286
  67.9964542  73.7902308  90.4717731  69.4000387  74.2266512  90.8329773
 103.6334038  88.4349060  73.9551687 103.6708260  89.3768215  73.7889338
 102.7124214  88.2626534  74.1509676  61.6897345  79.7065401  53.2388401
  62.0046997  79.8743629  52.3506594  60.8021116  80.0646305  53.2498598
  89.5067406  67.0891619  65.9410238  88.9917660  67.8649330  66.1628723
  88.8738537  66.4841223  65.5542326  12.1046736   4.1816806  80.2803135
  11.5584567   3.5993385  80.8082771  11.5682890   4.9644279  80.1545048
  85.1955414  74.4297266  83.3912754  84.5048141  73.8581038  83.7264919
  85.0360107  74.4706249  82.4483490  72.1248055  90.0878239  63.7149954
  73.0558252  89.8823357  63.7998962  72.0011139  90.2572250  62.7810574
  36.4282393  84.3284893  27.4380445  36.9698429  84.3382645  26.6488671
  35.6131220  83.9081573  27.1639419  98.9281178  95.2108479  53.7287188
  99.1562366  95.9372807  54.3088007  99.4575310  94.4779682  54.0430832
  93.3480072  67.1323776  72.5631666  93.4571648  67.9550838  72.0862293
  93.1256485  66.4916420  71.8877029 107.7178192  79.2316055  34.8441124
 107.8818130  79.0114355  33.9271283 106.7800903  79.0804768  34.9627113
  98.0016994  44.2176962  88.1645679  98.4093571  44.9791336  87.7519512
  98.7109089  43.8031483  88.6558914  75.2683881  59.5752127   4.1735470
  75.8829072  59.6040995   4.9068749  75.7748655  59.2039759   3.4511196
  82.9574490  90.1699257  52.7344179  82.3713970  90.8593178  52.4221516
  82.8385448  90.1665020  53.6841965  92.1298313  54.7695589  38.7712884
  92.7034950  54.6177769  39.5223570  91.5002728  54.0491533  38.8013101
  97.3185730  47.1876383  40.3253937  97.3935509  46.8657446  41.2237215
  96.3917255  47.0833874  40.1101828  78.9031887  50.2631664  39.9321985
  79.4722509  49.8167896  39.3051839  79.3233299  51.1112261  40.0754070
  77.0593500  83.2092285  60.3348827  76.7330980  83.0515671  61.2208462
  77.9287338  83.5884476  60.4637432  82.8365135  66.2369633  50.3757524
  83.4555817  65.9720993  49.6954298  83.2935238  66.9237804  50.8612013
 105.1907349  67.0465851  75.5282640 105.7751942  66.3595009  75.2080154
 104.7211647  66.6410875  76.2571716  99.8684311  57.3690414  62.9052258
  99.4579315  56.7913008  63.5486031  99.3246269  58.1567526  62.9092550
  34.2606880  70.3471804  52.8970528  34.5432140  69.4326735  52.8875828
  34.9151851  70.7945156  53.4334898 107.3199558  85.7079983  81.6280937
 107.8728199  86.2434673  82.1971703 107.7440262  85.7527637  80.7711220
  99.2413712  68.0245352  85.8771038 100.0605488  67.5456667  86.0030651
  99.0615749  68.4200764  86.7300129  98.5339737  65.8895588  43.5994291
  99.0089130  66.3753796  42.9251575  97.6277924  65.8759880  43.2913828
   1.7951919  82.5731182  89.9835873   2.4507286  83.1366253  89.5725441
   2.3032047  81.8682194  90.3851700  66.4304399  72.4114895  46.3786316
  67.2590113  71.9519949  46.5148735  66.6832972  73.2553911  46.0042953
 100.4185390  75.5163908  65.1769209 101.1167431  75.0388050  65.6248713
 100.0371075  74.8757696  64.5766401  87.3404694  81.6014862  53.0085564
  87.0816612  82.4477005  52.6436329  87.7918911  81.8201923  53.8237953
  75.0598291  29.6468622   0.6940472  76.0161451  29.6213228   0.6619179
  74.8293260  30.4881555   0.2999508  79.1499615  59.3216658  17.4929249
  79.3554640  58.5544586  16.9587040  78.6629772  59.8992920  16.9051957
  71.6768503 102.0318031  48.3276224  71.9677114 102.7224445  47.7320910
  71.8679667 102.3727894  49.2013693  52.0919132  81.6732597  86.9866848
  52.8992367  81.7146778  87.4992752  51.5145874  81.1033535  87.4947643
 102.9563618  63.6604977  66.2350941 102.1346092  63.1708097  66.2692690
 103.4861565  63.1944752  65.5882788  97.1523285  64.7113752  47.5420666
  97.0493317  64.8401070  48.4849596  96.4743710  64.0761662  47.3115921
  98.3965111  50.1965904  47.3086023  98.6805344  49.3101978  47.0852757
  97.6632023  50.0686502  47.9103613  98.8274765  90.6816387  32.9503560
  98.4906197  91.5040970  33.3057857  99.0724468  90.1700211  33.7213731
  78.9962149  71.3280916  33.4338355  78.3592033  71.6563463  34.0684223
  78.8369322  70.3848219  33.4005952  87.0129967  91.3181686  55.2740049
  86.8058205  91.2818336  54.3402052  87.4925995  90.5075550  55.4446602
 101.1935711  85.3974247  46.2312317 100.2772808  85.2171612  46.4413452
 101.6049576  84.5339680  46.1933231   1.4763881  93.6067867  53.8008308
   0.9469272  94.4011784  53.8704014   1.0474826  92.9811859  54.3847036
 105.4910755  76.9090271  30.0015020 105.9665203  77.6923227  29.7246838
 105.0388432  76.6118050  29.2119598  69.4631147  87.9791737  54.9987984
  69.9647093  88.3115101  55.7432413  69.2339802  88.7609386  54.4962358
  81.7624283  34.9384618  78.7871552  81.4825726  34.0811682  79.1080332
  81.0830307  35.5409694  79.0898705  84.6562767  72.3193455  50.0662661
  83.7926960  72.0151186  50.3453875  84.6029949  73.2735491  50.1200867
  94.5391273  94.0372658  27.5793123  94.0093899  93.2408810  27.6167011
  94.1095829  94.5798111  26.9179749  69.7157815   9.9033720   6.7742741
  70.5996183   9.5940191   6.5758431  69.8212674  10.8404428   6.9385922
  69.8380518  82.4293613  58.4282589  70.2380419  81.5754986  58.5930300
  70.1585007  82.9850769  59.1386986   1.7727807  16.9209957  70.6073189
   2.0779278  16.0212993  70.7242203   2.3256686  17.2726821  69.9095631
  31.0311317  73.6651278  59.3924236  30.4372072  74.0480614  58.7467861
  30.4569364  73.3607483  60.0951910  95.3361797  81.8625736  61.1012459
  95.5021095  80.9513378  61.3428116  96.1662006  82.3093891  61.2675285
 102.2132969  58.4362030   6.6885954 101.7947960  59.1757679   6.2479848
 102.9478073  58.2034826   6.1206490  78.7799311 103.5537052  55.0563860
  78.0178642 103.4914303  55.6322384  79.0045929 104.4841671  55.0561905
  99.5668984   1.8256092  41.4542341  99.8509217   1.7885017  42.3675728
 100.1892186   2.4190616  41.0338116  57.4219084  81.7924595  75.7441235
  58.3486986  81.6524982  75.5499458  57.2465658  81.2264347  76.4958620
 112.7427769  75.8385706  70.3272486 112.3029518  76.3045263  71.0383511
 112.1678162  75.9575272  69.5712757   4.2733146  71.8537474  39.1692829
   3.4833862  72.3918200  39.1171646   4.9818660  72.4427557  38.9099431
  62.6414680  93.6027241  63.3680105  63.3775234  94.2110348  63.3016253
  62.9015064  92.8528118  62.8329992  59.0624285  73.2648802  52.5388384
  58.7005281  72.4567032  52.1753740  59.3813515  73.0156374  53.4062481
  94.3334961  59.5335484  53.6132526  93.8708496  58.9299917  54.1945505
  94.6405506  60.2332592  54.1897535  13.5533907   8.2260608  83.2979679
  13.0852797   9.0199375  83.5565376  13.0323889   7.5110435  83.6634064
  76.7374754  34.5189285  89.8983479  75.8587885  34.2301822  89.6518421
  77.2395849  33.7088776  89.9874306   0.9579136  84.3420410  47.0063591
   0.5886509  84.3986893  47.8876448   0.6650497  85.1431656  46.5720081
 104.0132809  61.9454813  80.3403568 104.7159195  62.3283195  80.8656788
 103.7448978  61.1678028  80.8296585 111.9303989  69.8520470  79.4674730
 112.3351097  69.6490717  78.6241245 112.3839760  70.6397915  79.7673988
  31.2404682 102.6988602  58.2772303  31.7132618 103.2894897  58.8636255
  31.1640026 103.1862736  57.4569798  81.3662005   3.4580326  36.3012528
  80.8043719   4.0609645  36.7881346  81.1626197   2.5956726  36.6633654
  75.4901838  75.2082348  91.2703323  75.1156807  75.8619547  90.6798840
  76.4326334  75.2513409  91.1085796  68.3655453  47.0783186  88.1898212
  67.8829527  47.2102308  87.3737717  69.0654469  46.4678240  87.9581642
  63.4051943  98.7758350  72.4794483  63.3938122  98.2300377  71.6931868
  63.8920879  99.5583153  72.2208214 111.9929600  36.7924428  49.5654488
 112.3379993  36.3848996  50.3598595 111.9368839  36.0756874  48.9335108
 111.7496872  70.2660990  48.2096720 112.3315144  70.6346512  47.5449324
 111.1521912  69.7019339  47.7188063  98.6165619  94.3817043  89.7962666
  98.6435318  94.5912457  88.8626766  99.4705009  93.9895248  89.9784851
  81.0315609  81.9354248  63.8702297  81.3775349  81.9968319  64.7606039
  81.0232449  82.8387260  63.5536766  45.6771040  99.6823883  75.6093836
  45.4862499 100.4724693  76.1149311  45.0337029  99.0422344  75.9134531
  78.9004803  67.1080399  85.7101536  78.8918924  67.6220512  84.9027157
  78.7402487  67.7483225  86.4033985  85.8903885  80.2832699  46.0873508
  86.0921955  79.7781134  45.2997494  86.6707993  80.8172226  46.2359285
 102.2052383  89.1969395  44.2594194 102.8564167  89.8580933  44.0247440
 102.0989323  88.6730480  43.4653950 108.9572716  78.3823395  72.3571491
 108.3532238  78.3893490  71.6146469 108.3900738  78.3383608  73.1269407
   4.4312622 103.6411650  14.4992363   4.0298703 104.5017130  14.6199333
   5.1758482 103.8032992  13.9199841  87.2634983  59.5901775  22.1259093
  87.2584057  58.9123678  21.4500546  86.7990208  59.1958141  22.8641272
  17.4709560  70.6584263  27.7779078  18.1971504  70.2034664  27.3514271
  17.8412296  70.9844112  28.5981917  30.4988005  10.5034255  36.7155933
  30.4551413   9.5522499  36.8134594  29.9202826  10.8413410  37.3992324
  85.0864557  43.7035734   7.7646172  85.8634427  43.1792623   7.9585564
  85.3651574  44.6076662   7.9101288   2.7509834  55.0148392  60.4437780
   3.3410408  54.3963051  60.0131083   2.1477558  54.4632292  60.9418535
   1.9175102  91.1534595  57.9054880   2.4747421  91.4488697  58.6255264
   2.5114204  91.0773277  57.1586943  94.7854424  72.0496607  44.2588377
  94.4744110  72.5454426  43.5014153  94.2695999  71.2434530  44.2456341
   1.9722416  83.5655212  63.7194967   1.7425396  84.1806316  64.4159842
   1.6878177  83.9981747  62.9144192  99.9358082  67.3642445  36.2077022
  99.0967464  67.1872425  35.7824016 100.3617477  66.5087891  36.2624574
 111.2160397  80.1484108  55.6897926 110.8810616  81.0162926  55.9151649
 110.7336903  79.9030972  54.9002457  39.8264792  10.6073474  39.7390318
  39.1141036   9.9685287  39.7648954  40.5189421  10.2155780  40.2712393
  78.7853003  73.5487556  45.8066702  78.0650473  73.5269547  46.4367390
  79.5396900  73.8458586  46.3154507   9.2119743  86.8381405  39.1820931
   9.2119075  87.7017689  38.7693262   8.4059955  86.8192387  39.6981096
  81.9917202 105.2766800  69.4219160  82.5582027 105.8711624  68.9300632
  81.2496758 105.8191299  69.6890402   0.5042507  53.4889507  87.6219082
   0.2860118  52.6441383  87.2283268   0.4505970  53.3347845  88.5650826
 107.5201607  76.4082909  61.4223051 107.1284676  75.5728149  61.1677837
 107.3204517  76.9978571  60.6951475  46.4116003   9.6765899  52.0216036
  45.5965712  10.0746440  52.3274231  46.1322024   9.0138244  51.3900042
  73.3627319  59.4828129  78.3176327  72.5904655  58.9172792  78.3196974
  73.4828854  59.7274780  79.2352009  60.2690029  82.3136520  72.9617596
  61.1872149  82.5831509  72.9395819  59.7862244  83.1220245  73.1340790
  37.1494010  70.1334268   9.7601044  37.2005180  69.1868383   9.8927414
  37.8192142  70.3195936   9.1021359 112.3751259  75.6069088  43.4678888
 112.1445179  74.9623299  44.1369009 111.5510654  75.7883358  43.0159616
 111.1569405  63.8943672  70.8011389 111.3951397  63.9322090  69.8748255
 111.3968849  63.0088663  71.0741711  19.6456435   0.7097339  87.2014999
  19.4867804   0.6706809  88.1446171  19.7197726   1.6445636  87.0096016
  44.7087958   2.1428966  40.9550333  44.5458033   1.6088294  41.7324877
  45.3721144   1.6567420  40.4652500  49.4884256  38.0348951  16.5147888
  50.1093152  37.3718244  16.8165505  49.1847566  37.7104647  15.6669914
 103.5549068  75.3326511  49.8999739 104.3831635  74.8950577  50.0967884
 102.8846645  74.6821451  50.1093721  57.2719240  79.5294285  50.2979422
  57.8691244  78.9069939  49.8830128  57.7035236  79.7642469  51.1194134
  72.3381570  16.3541300   3.4667408  72.0887712  16.0776073   4.3485367
  71.8755105  17.1817476   3.3354389  97.4936962  88.0271816  29.1832185
  97.4783516  88.2556152  30.1126337  96.7056656  87.4996090  29.0531993
  97.6134777  99.6332359  57.3006535  97.1880722  99.5627689  56.4460802
  97.7935791  98.7278938  57.5539255  78.7918806  96.7701626  45.4521608
  78.6561966  96.9637489  44.5246124  78.1969261  97.3637962  45.9102583
   8.5080196  97.3110199  31.4621043   7.8963043  97.6478195  30.8074307
   8.7186767  96.4272308  31.1607981  53.5811427  14.4576167  85.6271839
  53.9628413  14.6769142  84.7772121  54.1594222  14.8764896  86.2646580
 100.6083298  66.0333872  63.6628580  99.7564411  65.6100655  63.5565233
 100.4232979  66.9686794  63.5778236 108.8854218  91.0063267  63.9750099
 108.0750275  91.4729500  63.7706661 108.5968876  90.1411629  64.2656517
  15.2674247  62.1842194  52.8207207  14.6161892  62.8829622  52.8830481
  15.9848072  62.5696039  52.3176622  97.3095894  69.7962999  43.6215162
  97.4184990  69.3499565  42.7817822  96.6904736  69.2493153  44.1049767
  10.5201389  97.5008774  50.5218697  10.8317806  96.6644287  50.1762486
  11.3089706  98.0378628  50.5969191  67.2588348  90.2279949  84.0916538
  67.9785490  89.7456169  84.4985199  66.4813423  89.7026062  84.2805862
  95.4187870  86.4782429  69.5173264  95.3893661  85.9782505  68.7016249
  95.7193470  87.3481464  69.2543316   2.4808981   4.3485355  71.8697691
   2.9757359   3.7132739  72.3872662   2.7062132   4.1453838  70.9619188
  14.6375610  69.2105818  59.1458893  15.4047634  69.2977095  58.5801697
  14.0470268  69.9065113  58.8574696   0.8529141   6.5230846  71.8301058
   0.1752665   6.2283420  72.4385023   1.5613558   5.8879375  71.9346571
  27.2133686  70.3748274  39.6274161  27.5563099  70.9643507  38.9557862
  27.7794983  70.5202103  40.3854418 100.7923698  25.0158644  39.4607043
 100.5573368  24.1788602  39.8612285 100.9254742  25.6069803  40.2017117
  31.6682627   6.4944839  68.3860588  31.8591311   6.4246177  67.4506855
  32.1231272   7.2893142  68.6646032   2.0259192   1.5207767  28.3081985
   1.2794497   1.0911941  27.8904986   2.7533867   0.9112071  28.1839037
  86.5998650  99.4640541  62.2886419  86.3620567 100.3403664  62.5915670
  86.8348122  99.5842552  61.3685417  92.9655075  90.2836990  61.8081808
  92.4576378  90.0922585  62.5966263  92.6432896  91.1366940  61.5169621
  88.1345749  74.9474287  38.4059334  87.2010899  74.9297762  38.6169267
  88.3614635  75.8773375  38.4009647  86.0865879  52.9406595  50.0638628
  85.6660175  52.7887154  49.2175341  86.5815639  52.1389627  50.2327108
  78.7845039  89.9399853  42.5920153  78.1217670  89.9382305  41.9013548
  78.8597727  89.0224361  42.8540564  76.5659952  76.0292530  36.0910249
  77.4166584  76.0762644  35.6546831  76.2262154  75.1644945  35.8608580
  89.5537663  58.6192989  43.6737680  90.2730465  59.2439175  43.5803843
  89.9696255  57.8226662  44.0034342 105.4512405  57.2092724  40.8680153
 106.1621380  57.3565197  40.2441788 104.9794960  56.4528561  40.5193996
  14.8409416  74.5358992  72.4723196  15.6182624  74.1976213  72.9168224
  14.2950965  73.7637997  72.3235130 111.2372112  55.2253342  65.9762096
 111.2655067  55.7279968  65.1621103 110.4633236  55.5538988  66.4337969
  81.2670422  76.7697430  67.2307348  80.5402374  76.7008018  66.6116762
  81.1795902  77.6458883  67.6061726  85.8048248  95.3557396  78.6070824
  85.4948521  95.8683205  79.3536806  86.3981152  94.7095108  78.9900064
 101.9293594 106.6089916  53.7311554 101.4396381 106.0907269  54.3697500
 102.8352928 106.3158226  53.8289595  11.0354282  83.7143707  51.3138056
  10.0962211  83.5669708  51.2025070  11.2386085  83.3309174  52.1669865
  83.8211060  82.7263165  67.6009703  84.6388817  82.5835037  67.1244478
  83.2331276  82.0437050  67.2776079 108.8717651  87.3767185  83.2975578
 109.0419769  87.9011536  82.5151062 109.6944237  87.4017143  83.7862778
 103.3373833  68.9816046  61.7109394 102.7989483  69.7507000  61.5243578
 103.7918282  69.1991091  62.5248194  70.2233315 101.1124516  91.9158173
  69.6823883 100.6752777  92.5734615  70.1974010 100.5286026  91.1577511
  51.5370846  68.8255835  83.9910316  51.2014723  69.7219944  83.9973831
  52.2942066  68.8491440  84.5762253 111.2996627   4.4325351  81.7128944
 110.8868886   5.1326751  81.2072754 110.7019807   3.6899375  81.6259670
  66.7528677 104.3380928  64.6316671  67.5493145 103.8302803  64.7866631
  66.7205715 104.4488716  63.6814499  54.5891762 100.6417465  31.1407280
  54.4772339 101.5669155  30.9221816  53.8054419 100.2167988  30.7922721
   1.4037277  71.8258476  48.3603764   2.1355964  72.3621607  48.0554914
   1.1772682  71.2795305  47.6077223  82.0116997  63.6831665  72.8510571
  81.9292259  62.9547310  72.2355795  81.5420532  63.3909941  73.6322737
 101.0549355  98.9318180  56.2001228 101.8484020  99.0675449  55.6822252
 100.7361412  98.0710220  55.9287739  36.3062766   1.8348598  68.3912659
  35.8876040   1.9140052  69.2483997  36.5700915   2.7280330  68.1701851
  77.9344463  94.5810223  48.9384127  78.1398821  94.2944050  48.0485392
  77.7102470  95.5070019  48.8460398   6.5559436  70.5089664  66.0845709
   5.9480812  70.9602022  66.6703320   7.2321846  70.1589441  66.6645861
  74.1276646  85.1442528  79.2962503  74.9493980  85.1681423  78.8059330
  73.4712076  84.8819637  78.6508751  31.2062457   8.4340000  33.6622763
  30.6410506   8.3303546  34.4278073  30.9273627   7.7415466  33.0631447
  98.0253601  85.7450676  67.6166582  98.7749577  85.7485485  68.2119083
  98.3388519  85.2826118  66.8394279  82.9731655  58.6563253  41.9656563
  83.4658432  59.4120455  42.2856379  82.5411510  58.9708614  41.1715126
  33.9395668  94.8759365  41.6861391  33.1705238  94.4629002  42.0788336
  34.6413757  94.7266293  42.3196983  80.6723309  47.7582073  78.6053944
  81.0332870  47.6975012  77.7209425  79.7295237  47.6419115  78.4878206
  99.3954563  93.6826420  83.0330658  98.8073254  92.9586601  82.8181553
 100.0541592  93.2934475  83.6082840  88.1220055  82.9884529  69.1335249
  88.2549000  83.4112072  69.9819613  88.2530880  83.6884594  68.4939718
  36.7816308  34.1602499   6.6107952  37.4189046  34.6581537   6.0987389
  36.4637473  33.4874422   6.0087120  80.3122711  58.0974150  46.3745928
  80.6968594  58.9213896  46.6735744  80.0699425  58.2628822  45.4634809
  78.4448817   3.8379478  54.2051697  78.4560397   2.8810596  54.1834879
  79.2037966   4.0982150  53.6831093  30.0213530  35.8617591  51.5688372
  30.7733061  35.8969497  52.1600723  30.2090838  35.1259422  50.9861135
  29.8808863   7.5099658  76.6322947  30.2388098   7.8974151  77.4310493
  30.4967787   7.7652549  75.9454632  22.0518161  70.6180954  43.7003136
  22.0694687  71.5244436  43.3929873  21.1213924  70.3969288  43.7405968
  90.2132225  99.2936134  55.5039835  89.4956493  99.3871880  54.8774338
  89.7993946  99.4028282  56.3601637  85.9780693  96.1531639  59.5369959
  85.3561783  96.1234856  60.2640533  86.7658424  95.7298183  59.8782063
   8.0383636  42.6783800  80.5896568   8.2795765  43.2798481  81.2941360
   7.5083114  42.0068789  81.0190296   2.2079612  96.4568329  49.3593025
   2.8676559  96.1336803  48.7456226   1.7527153  95.6696033  49.6580458
  65.6137994  35.0977594  14.1655934  66.0608247  34.4529135  13.6173451
  66.3208822  35.5668051  14.6086037  88.1565762  79.7528219  32.7794719
  88.0349827  79.6241665  31.8387842  89.1062450  79.7661400  32.8986096
 112.4852467  96.1833096  20.3224826 111.6042614  95.8558941  20.5038118
 113.0668736  95.5579281  20.7547283   2.6605895  11.9037914  51.9128656
   2.5693943  12.8560256  51.9468975   2.5999739  11.6905021  50.9817028
  98.2078838 101.1916637  40.4002905  97.8928471 100.4483986  40.9146261
  97.7399445 101.9461060  40.7581663  94.6969128 101.4132500  53.7283182
  94.8550701 102.2494698  53.2901955  94.3594265 100.8416080  53.0387068
  39.8552134   0.4183387  40.4351234  39.7858717   1.3434028  40.1991606
  40.7963088   0.2438354  40.4460192  79.7120237  95.1985264  57.9434824
  78.9426851  95.0149918  57.4043465  80.1028347  95.9767246  57.5461197
  23.9761306  67.7186441  21.1499834  24.0204765  67.0194101  21.8021607
  24.6748687  68.3234549  21.3993812  80.9127903  90.1438141  81.1229706
  81.6134167  89.6071815  81.4936161  80.9915352  90.0204945  80.1770210
 110.7066394   2.0542812  27.4174094 110.9554339   1.9452476  28.3352566
 109.7499848   2.0838069  27.4304485  54.0831470  75.3139687  62.3153114
  54.0703869  74.4011974  62.0273399  53.6867380  75.2958679  63.1863785
  58.7557364 102.2348118  88.5953140  59.6944427 102.0957661  88.4698868
  58.6580420 102.3743725  89.5372391  41.2517550   2.6129054  69.7870684
  41.7065146   2.5645732  70.6279516  40.5854895   3.2884216  69.9135876
  65.5485439  96.7090130  52.3349476  64.6479654  97.0035744  52.1992159
  66.0641432  97.2193146  51.7104673 109.6925735  85.5677319  46.0230017
 109.3698025  85.0733662  45.2695704 108.9345741  85.6429672  46.6026592
  22.9811861   7.6601600  52.2513247  23.1963255   8.1389522  51.4508867
  23.7965395   7.2217082  52.4946260  76.7280388  73.8124847  50.7780218
  76.6947603  74.6877050  51.1641788  76.0256624  73.3309793  51.2151194
   4.2503788  84.2087650  52.1279621   3.3676674  84.4811821  52.3786402
   4.2379428  84.2076302  51.1708450  93.7067699  76.5372610  34.5644403
  93.1004333  75.8739471  34.2348909  94.0984917  76.1387157  35.3415847
  69.4576216  61.1667299  47.3076296  70.3231144  61.2615681  46.9099331
  69.4571495  61.7921925  48.0322218  83.6776829 101.3380051  80.2166843
  83.3025646 100.5174541  80.5364037  83.2234383 101.5031528  79.3904781
 109.7681522  78.6336279  80.5598354 110.5894279  79.0115976  80.2453804
 109.7169685  78.9016151  81.4773273  83.2391548  64.8275471  75.4644871
  82.3338509  64.5758533  75.2819920  83.4408379  64.4069338  76.3003349
  29.9836924   2.1230316  61.3122892  29.1964056   1.7578124  61.7160559
  29.8344138   2.0321178  60.3711796  48.9044383   2.4273681  53.2114887
  49.5630267   2.9232311  52.7250624  49.0151122   1.5247917  52.9125738
  88.8112164  99.2196941  40.9818268  88.8824272  98.4884644  40.3682661
  89.6912956  99.3129158  41.3465261  89.4471931  96.7852783  69.3821096
  88.8781548  96.0604000  69.1233015  90.1087666  96.3816357  69.9439096
  26.2528326  12.0577716  65.5684900  26.1366179  11.1082363  65.6017256
  25.9229186  12.3690986  66.4113808  70.4309940  88.3037758  64.7631931
  70.8265972  89.1251469  64.4715071  69.4884920  88.4496593  64.6816730
  49.3894148  93.7822628  53.6560488  49.0649176  92.8974152  53.8232660
  50.3403950  93.7075996  53.7353516  79.8879957  64.2733955   6.1933941
  80.6285667  64.0264750   5.6394827  80.0714397  63.8598108   7.0369154
  69.1653299  83.9013767  38.7277842  68.4806681  84.4011497  38.2831502
  69.2035913  83.0717182  38.2519317   6.4341404  86.6458511  12.8798771
   5.6956054  87.2547722  12.8759217   6.8574764  86.7882919  13.7264776
  67.6854515  93.0692196  84.1386223  67.9590225  92.2927666  83.6502361
  67.2289562  92.7217007  84.9048328  18.6839058  55.9287834  34.0610576
  18.0868293  56.6205549  33.7761307  18.2218505  55.1152563  33.8587761
  77.1796608  88.3304501  51.4570665  78.0009270  88.8201141  51.4126110
  76.5461636  88.9565659  51.8076181  10.3352787  98.6986446  61.6329908
  10.6287815  98.1861019  60.8797455   9.4378234  98.4041023  61.7880917
  48.1945945 104.5748043  30.8066678  47.2843887 104.4881344  30.5233622
  48.5879280 103.7240410  30.6124258  87.9879856  72.8558111  44.4901180
  88.3592510  73.1755590  43.6678314  87.2438240  72.3162174  44.2231131
   8.8413383  72.6778173  57.1164465   8.1904937  72.7251911  57.8167248
   8.5515834  73.3273315  56.4758205 109.7261429  77.0153093  54.7464752
 109.9532509  76.1978436  55.1896477 108.7967968  76.9236565  54.5363665
 105.7200623  88.9268303  16.8515050 105.1583385  89.6727276  16.6409481
 106.0810375  88.6532688  16.0082412  67.8843498  72.4460316  33.2204318
  67.4991560  71.9168663  33.9188886  67.1784687  73.0316830  32.9466081
  87.4932384 102.7350903  63.3228493  86.6169071 102.3569107  63.3952951
  87.7915478 102.8234673  64.2280769 105.3647041  93.2647991  49.8635340
 105.6023121  93.4542656  48.9558601 105.6194019  92.3511028  49.9920654
  86.5062809  86.9340992  53.6923361  86.8122482  87.5327778  53.0110121
  85.6209373  86.6932487  53.4196091  87.0804214  94.1668892  80.9610271
  86.4464569  94.8475456  81.1869431  87.8458500  94.6475697  80.6459141
  61.7506599  99.7398090  69.5763731  62.4547863 100.3686047  69.4180918
  62.1891928  98.9810276  69.9612951  96.1886692 105.4897881  42.4977016
  96.9113064 105.5057812  41.8701935  96.6013527 105.6677437  43.3428383
  99.8407936  34.8245525  70.1398802  99.6326542  34.0282130  69.6512556
  99.4452953  34.6876097  71.0007286 102.3137093  90.6418228  55.5487347
 102.1843719  90.4458618  56.4766932 103.2335281  90.4329967  55.3857756
  24.1219856  78.3331823  26.7265940  24.8278381  77.6866674  26.7217827
  24.2277004  78.8093424  25.9029865  15.5777790  83.1332874  37.8409982
  14.7310878  83.5536671  37.9914713  16.0621120  83.7570381  37.3000908
 105.0855446  94.1259861  52.4545145 104.9922943  93.4573841  51.7759037
 104.2043114  94.2264366  52.8144741 102.8207588  72.7722692  70.7193995
 103.5464001  72.8938198  70.1071119 103.2087040  72.3086929  71.4615774
  95.8563709  49.7507715  27.0827365  95.4110050  50.4698658  26.6346407
  95.5442905  48.9621496  26.6389871  63.1586695  88.5564899  38.6253047
  63.0396843  87.9734325  39.3750525  62.3012018  88.9628792  38.4994769
  94.9827862  75.1867723  40.1626444  95.9255505  75.1198244  40.0111818
  94.8474884  76.0950708  40.4326773  91.7171955  97.4718571  75.5559158
  92.0277023  96.7546272  75.0032949  90.9713459  97.8359890  75.0791025
 108.2275581  84.5773411  39.5846915 108.9270306  85.1973629  39.3784237
 107.7018356  85.0219059  40.2496767  75.0961637  72.3462152  90.6226540
  75.3185463  73.2081699  90.9745216  74.2205048  72.4573183  90.2523708
 108.6102200  93.9562035  30.1896119 109.3362713  93.8330746  29.5781159
 107.8306198  93.9773273  29.6346307  88.7583542 100.4313660  18.1463242
  88.0017185 100.1545238  17.6295006  88.9191628 101.3339138  17.8710425
  28.9988043  17.7791595  52.9271603  28.7626460  17.2145652  53.6631680
  29.7128966  17.3158359  52.4893856   0.7518818  89.8473263  44.6863604
   1.6228153  90.1842880  44.4761992   0.2214576  90.6302452  44.8343992
  74.2500925  71.1876726  63.2070017  75.2028799  71.1599255  63.2945395
  73.9295673  70.5986309  63.8900280  91.9205952  80.0189972  59.1239071
  91.8681145  79.3356514  59.7921228  91.5855217  79.6033478  58.3294344
  16.3511612  79.6118116  65.2759647  15.5624439  80.1355457  65.1350260
  16.3378193  79.4054794  66.2105656  25.5364849  73.8692808  38.2295728
  24.8309089  73.5112524  37.6908684  25.6810810  74.7489929  37.8811002
  59.1004232  31.6992742   5.2840912  59.6192983  32.3487646   5.7586109
  59.6791986  30.9408838   5.2061093  64.2872715  90.7448006  69.4188881
  64.5880318  90.3183270  68.6164570  63.7088108  90.1020718  69.8293877
  92.8339577  49.2810917  48.3263016  93.4903145  49.8198128  48.7681198
  93.2309437  48.4114313  48.2780361  97.5537586  88.9534187  62.5669384
  97.6357174  88.4532928  63.3789682  98.2271576  89.6304035  62.6335859
  54.0721130  78.1919193  38.2409072  53.9246035  77.8798437  39.1337037
  53.6457872  77.5392103  37.6855254  70.5895948  52.3295116  65.1189232
  70.8929586  51.4216900  65.1113749  71.3923693  52.8500795  65.1471281
 102.9833412  92.8062439  58.4885645 102.7911758  91.8968391  58.2598972
 103.6890602  92.7472878  59.1325521 108.4451389  96.1319637  67.0805216
 109.3370819  95.9945869  67.3995972 108.5548306  96.3823605  66.1631918
   2.4097683  69.5756769  49.5439768   1.9474746  68.8703728  49.0911293
   2.0171692  70.3783846  49.2008162  80.0030136  67.7816772  53.2177258
  80.2925396  66.8722725  53.2911491  79.0479517  67.7270317  53.1845188
  98.1287670  96.3046741  14.4140875  97.5740242  95.5803871  14.1244149
  98.4170723  96.7245293  13.6036348  73.9822439  48.5178930  12.0101750
  74.1194680  47.6278765  12.3346340  74.2506841  49.0814287  12.7358544
  96.1244488 104.3406487  38.4699988  95.4654121 104.9400806  38.1198907
  96.5709972 103.9971542  37.6961493  11.5423729  59.6523571  81.9379520
  11.5662529  59.6599007  82.8948307  12.1208335  60.3694153  81.6782665
  45.6171846  88.1340408  45.0384951  45.8820724  87.3302460  44.5913124
  45.8096600  88.8314056  44.4117022   2.7608253  40.8363628  59.2217922
   2.7355720  41.4548540  58.4916782   3.2042934  40.0656033  58.8675356
  88.8605404  94.9681377  61.0245085  88.9356518  94.2495155  61.6523409
  88.5263920  94.5561409  60.2277422  87.2500852  59.8634512  15.7971584
  88.1895784  59.7038919  15.8873093  87.1918729  60.7290060  15.3926098
   1.2035133  71.6143751  77.7136898   2.0329048  71.2481070  77.4067688
   0.5425788  71.2212944  77.1437025  11.8906119   2.8611850  50.1359940
  12.5990584   2.6304340  50.7368994  12.3180869   3.3665561  49.4445467
 111.2561703  99.3110847  63.5409498 111.3695717  98.6230278  64.1966486
 111.0193920 100.0879860  64.0474987  82.7179527  78.5125828  55.2288055
  83.1722832  79.3312454  55.0298023  83.3965206  77.8404808  55.1651573
 100.5044365  80.3510666  91.7302608 101.2867641  79.8155069  91.8620586
 100.5704403  80.6525612  90.8241844  62.9951000  94.2341423  78.2114363
  63.5339975  94.7603416  78.8021469  62.6930237  93.5029411  78.7502527
  45.6890109  17.9386901  72.5737143  46.4678957  17.9075050  73.1292391
  45.7765200  17.1806812  71.9957876  24.3726828   6.6108417  89.7124004
  24.0851595   6.0343170  90.4203415  25.0136950   7.1918296  90.1220322
  82.7031136  60.0222063  31.1408639  83.5736847  59.9572229  31.5334415
  82.7045059  60.8686495  30.6939101  99.0609074  96.8122768  66.6472673
  99.6062374  96.2036800  66.1488104  99.6255970  97.1112251  67.3599958
 111.8264198  91.1901474  30.2309799 111.4637089  90.6088352  30.8993721
 111.0883999  91.3784409  29.6512413 104.7996044  65.6610680  55.6511354
 104.8271942  66.4308548  55.0828934 105.5486488  65.7690477  56.2372351
  72.8257799  98.6315441  27.3980069  72.6746178  98.0381203  26.6623235
  73.7785673  98.7016010  27.4573541  88.8170147  67.4053478  42.0596552
  88.9212418  67.5034142  43.0060959  89.5389843  67.9103899  41.6855812
  80.4460335  79.6820498  81.5990448  81.3922501  79.5980167  81.4814472
  80.3486252  80.3021526  82.3216915  80.1821136  70.5509758  46.5792036
  80.8804512  70.9214640  47.1189165  79.3736982  70.8247948  47.0124769
  85.8803558  89.3117809  37.8119016  85.0877857  88.7765694  37.8521919
  85.8248138  89.7587967  36.9673157  90.4651642  80.2407932  45.9068108
  90.4521084  80.3312206  46.8596411  90.1832199  79.3399811  45.7478285
  31.7696001  34.2134380  47.3534012  32.4246218  33.5635375  47.6079655
  32.2777274  34.9988269  47.1503925  43.4590867  31.7946989   6.9961559
  43.7049630  31.8651087   6.0737526  43.9054635  31.0056860   7.3034584
  24.3630221   0.3342628  65.7214928  23.5682013   0.1835822  65.2098465
  24.1421034   1.0664176  66.2971449  22.3078539   1.2717628  44.0487623
  23.1154540   1.0366153  44.5056295  21.6470435   0.6818103  44.4114065
   2.0191814 103.8861942  72.2772741   1.7928554 104.5573807  71.6334438
   2.9759742 103.8930607  72.3041821  98.2537365 106.4043236  60.2889442
  98.3811855 105.4630947  60.1702881  97.3033810 106.5164757  60.3107357
  28.2358744  11.6526794  80.0955963  28.7045004  10.8432197  80.2990341
  28.1515696  12.0988750  80.9382248 102.3639297  80.0474548  63.1544161
 101.6958618  79.8362350  62.5022602 101.8723392  80.4055309  63.8935661
  23.0266334  84.7608185  44.7874212  22.4019672  84.0369034  44.7430229
  22.5011207  85.5145168  45.0557375 107.2470379  61.9353437  66.8835354
 107.5977516  62.7050114  67.3316813 107.1333504  62.2176838  65.9760189
 100.5975914  95.1564503  57.7694893 101.5207100  94.9352169  57.6463938
 100.5946445  95.7730865  58.5015917  98.2746887  84.9265671  55.0225496
  98.4600639  84.7500134  55.9448814  97.5028324  85.4924679  55.0374460
  25.9036830  58.2730753  12.3004067  25.5661825  58.5217840  13.1609165
  26.8467668  58.4257299  12.3597538  33.8502600   4.0048599  58.8649464
  34.3574240   3.5319995  58.2050753  34.2563536   4.8707675  58.9039803
  61.8095305   5.2884292  52.6524544  61.9962313   5.4818439  51.7337799
  62.6361563   4.9528789  52.9993534  16.0462859  15.2409553  41.4216137
  15.6254675  16.0720348  41.2014818  16.3845446  15.3710365  42.3075533
  16.1032870  49.6667671   5.5560380  16.2133696  49.8885822   4.6314242
  15.6595519  50.4263305   5.9333825  24.9339058  82.2691345  41.1055899
  24.2332698  82.9098988  41.2270927  24.8919918  81.7174053  41.8866539
  18.2119133  88.0382919  47.9835129  19.0545990  87.6000786  48.1021357
  17.9555370  88.3072281  48.8656569 106.3694239   9.9926948  69.1660166
 107.0676328  10.6270313  69.3283415 106.5469647   9.6611022  68.2858133
  22.5319292  12.0192909  75.3030634  22.1884444  11.5060233  74.5717573
  21.8795016  12.7059745  75.4410458  40.2587416   4.1049766  82.7914429
  40.2014067   3.7187099  83.6653614  40.7465746   4.9183463  82.9206085
  38.8881972   0.3877067  64.2369032  38.9155009  -0.1758290  65.0101471
  37.9554369   0.5364990  64.0817928  85.4709435 105.2227116  65.4002857
  85.1071548 104.5020294  65.9145880  84.7103500 105.6264591  64.9822855
  62.8789282 101.2483406  51.4280081  63.1398964 101.8183136  50.7046461
  61.9349003 101.1363983  51.3161659 105.3954792 106.1342716  69.5846272
 104.5276642 105.8522987  69.8738050 105.5761337 105.5989552  68.8119555
  11.3096477  96.6122627  60.0151300  12.1617176  96.2937069  60.3130102
  11.0120155  95.9513092  59.3900013  67.3013833  24.2695219   8.9769566
  67.4845842  25.1161415   8.5696423  66.3480142  24.2443497   9.0586960
  16.4268496  14.0092849  60.8246851  16.1814120  14.9189090  60.6556702
  16.1638167  13.5392475  60.0334120  33.0355265  11.5540409  63.3934069
  32.8632643  11.2134265  64.2712116  33.9878943  11.6411209  63.3529139
  83.4950447  76.4922285  64.6625185  83.0537701  77.2795630  64.3437433
  83.8184738  76.0618687  63.8710546   7.7065470   9.5350074  18.9128602
   6.9825461  10.1238441  19.1257489   7.3156741   8.8699626  18.3461452
 102.1392345  83.7100983  21.0578609 102.2896004  84.3127441  20.3295565
 101.2300777  83.8656998  21.3136959  43.0999758  17.5018405  73.6038113
  43.9663126  17.8234672  73.3543301  42.4945929  18.1694126  73.2811880
  79.0015221  77.0571566  34.4103718  78.6403942  77.8976965  34.1287589
  79.8291492  77.2823381  34.8352861  96.8796539  90.7417202  68.7286854
  96.3780403  91.0205650  69.4947577  97.0714283  91.5536785  68.2594442
 103.1616306  93.2698059  27.2290206 103.7162399  92.7239418  26.6716361
 102.9278088  92.7022552  27.9634929  45.4819727  78.8425493  47.6766253
  44.8052168  79.1525078  47.0748281  45.3123665  79.3149900  48.4916496
  25.0604155  10.9903240  60.6940317  25.7668021  10.6180667  60.1661348
  24.2590430  10.7275295  60.2412987  22.8206446   6.2864684  55.2179861
  22.6746561   5.6671714  55.9330988  23.3807948   5.8137512  54.6023655
  96.4520168  94.4746494  43.6569405  96.3345623  94.7516537  44.5656204
  96.5365791  93.5224438  43.7058353  49.1985514   5.7798194  43.5281849
  48.6945441   5.0269508  43.2193327  49.9652197   5.8059596  42.9556656
  14.1035892 100.6368923  32.3473859  13.1814911 100.8794022  32.2627664
  14.4301559 100.6193447  31.4477873  61.5330556  67.1110994   0.2949917
  61.3915590  66.2415487  -0.0793159  61.8456319  66.9413549   1.1836540
  94.9788761  93.2204247  35.1896858  95.3405476  92.8700638  34.3756390
  95.5967712  92.9420376  35.8656573  58.7709573  56.6292459   0.9583866
  57.8821424  56.4103205   0.6785500  59.2595914  56.7358763   0.1422417
 109.3127441  61.2500334  33.9529085 108.8559437  60.8814240  34.7090149
 109.1697216  60.6131458  33.2528019   6.7676737  16.4587020  76.6771603
   7.0947268  16.7965221  77.5109100   5.9878924  16.9832897  76.4955187
  76.1505270  60.7727337  45.2590275  76.0451365  61.6992569  45.0429773
  76.5366364  60.7734489  46.1349010 109.4040204   3.1022643  85.1274967
 110.2891303   2.8991508  85.4300880 108.9456654   2.2621536  85.1466560
   5.9577467   4.9628162  45.1993608   6.0355093   5.8289432  45.5993748
   5.6764510   5.1381111  44.3013763  92.4601460  87.0939541  37.4823642
  92.0506287  87.9355621  37.2818232  92.9857159  87.2635746  38.2641816
  27.3150732  10.3711414  87.5536442  27.0261290   9.7472190  86.8877125
  27.2755530   9.8806095  88.3746529  96.6528797  94.4510746  91.6587067
  97.2113228  94.3213081  90.8921909  97.0131016  95.2265549  92.0889473
  39.6997263  22.0556640  86.5411186  40.2971556  22.1825694  87.2781467
  38.9418127  21.6112041  86.9209385 101.4015579  95.8250809  39.2017984
 101.4688873  94.8712540  39.1581440 100.5559158  96.0241318  38.7999439
 101.2142372  60.5590153  77.8164196 101.5142727  60.1528549  78.6295843
 100.6732273  61.2952709  78.1018448  39.5376589   7.3550605  70.1206112
  39.0473082   6.8620777  69.4627714  39.1882422   7.0502471  70.9580040
   1.4978888   9.2106819  61.7373562   0.9343388   9.8797321  62.1259546
   0.9283879   8.7432384  61.1262894 100.6085491  85.3836155  73.2053852
  99.7613811  84.9556732  73.0812883 100.5134487  85.8701706  74.0242004
  90.3766918  63.3880568  45.7890463  90.4942036  63.2164621  46.7233801
  90.7236195  64.2711163  45.6622171 101.6352558  98.6130333  84.6440506
 101.2916374  97.8955936  85.1764393 100.8778477  99.1756725  84.4827652
  14.2122462  14.2714500  83.1479549  14.9375441  14.1236019  83.7548447
  13.7275412  15.0041675  83.5279751  67.5793695  86.3645554  72.5263119
  68.2895899  86.9900322  72.6698589  67.2965908  86.1170673  73.4066582
  43.2277250  90.9833431  35.2415514  43.7117195  91.7103291  34.8498058
  42.5092125  91.4018440  35.7157111  11.8573763  24.4298458  69.5050335
  11.1593916  25.0831699  69.5522404  12.6387026  24.9306106  69.2705202
  60.4648781 100.7522488  65.9256268  60.2957249  99.8113823  65.8768463
  59.6315956 101.1312294  66.2053537 110.1100254 104.4085693   1.9874324
 110.6432629 103.7609863   1.5264310 109.3683910 103.9088917   2.3287965
   0.0478508  63.9137268  37.5181937   0.2197219  64.7596025  37.1044517
   0.4381801  63.9892864  38.3889246 109.7673846  10.0051784  66.4213276
 110.2326203   9.6779537  65.6514502 110.4554606  10.3607177  66.9837999
  81.6300583  98.1663513  59.4708014  82.3584843  97.5632763  59.3227434
  81.2091923  98.2482719  58.6149979  73.6689186  88.4048939  21.3212943
  72.7904367  88.4540272  21.6982365  73.9795351  87.5291538  21.5511322
  86.4775372  95.2138710  85.0536919  86.7721653  94.3495560  84.7666645
  87.2175026  95.7924843  84.8696232  12.3474791   0.6581687  60.5109930
  12.5021746   0.3042888  61.3868189  13.0616381   0.3050422  59.9804115
  77.5014591  92.2997284  60.9208202  78.4096813  92.5716782  60.7888508
  77.1729612  92.1257401  60.0387478  79.6485472  92.5871658  69.9655008
  79.0114307  93.2898998  69.8371029  79.7560167  92.1996498  69.0968800
  86.1436749  93.6546803  56.7425394  86.6371155  93.0465031  56.1922121
  85.7241917  94.2518139  56.1231041 112.0747757 105.8854389  34.8443961
 111.4473057 106.5631390  34.5929050 112.6753235 106.3262367  35.4454517
   9.9107410  79.1367388  48.0248022   9.9914314  79.5719910  47.1761131
   9.3596794  78.3735800  47.8511572 110.5393554  23.4093189  73.4770489
 109.6802235  23.5333824  73.8804531 110.8464337  22.5703906  73.8207483
 112.3667145  79.7495270  51.1197519 113.1499386  80.2245903  51.3974428
 112.3231506  79.8915005  50.1741457 107.8664398  65.0478268  90.3393364
 108.3675671  65.3428650  89.5790386 106.9547558  65.0697994  90.0484943
  31.1083224   1.7721462  46.4741755  31.6234019   2.5191116  46.1692715
  30.2107241   2.1018123  46.5174055  84.1142273  90.5685997  26.2955809
  84.1218376  91.4104176  25.8400321  85.0337410  90.3044415  26.3260579
  38.6134055  22.8016948  81.5495300  37.9684355  23.1831264  82.1451473
  39.3707468  22.6149463  82.1043015  29.0227606  33.4476661  57.1202564
  29.5354655  34.2553996  57.0894861  29.3621066  32.9774475  57.8818083
  70.6702852  78.9102221  71.8561077  69.9511147  79.0319538  71.2362623
  71.4325809  79.2853689  71.4152002 102.4394894 107.1243954  73.5832024
 102.0485020 106.2984180  73.2983875 103.3832073 106.9708920  73.5378027
  93.2069874  92.7200317  23.7380266  93.8479996  93.1296349  23.1570268
  92.9371548  91.9265938  23.2755470  11.0099937  83.1973267  46.3358450
  11.7155983  83.8435078  46.3074064  10.3950931  83.5424709  46.9831467
  42.4828341  14.1520118  11.3210571  42.8102210  14.8246669  11.9182110
  42.8647044  13.3367156  11.6461563  24.7441008  14.8802184  51.1578846
  23.8939383  14.9772071  50.7288647  25.2073767  15.6936645  50.9581232
  11.4848663  72.1818542  29.5315194  11.8724395  72.6370907  30.2790332
  12.2319271  71.9437742  28.9824772 103.4207344  87.4245548  26.8501329
 103.9337635  87.0266438  27.5534821 103.9498234  87.2923946  26.0634804
  18.2973006  28.5966682  67.5900459  18.5555747  28.6722659  66.6714525
  17.9143431  27.7222156  67.6599932  13.1073191   7.0880699  91.6997433
  12.8656008   6.2603568  92.1152973  12.3532584   7.3112869  91.1540222
  42.0219138   3.9476299  67.2014570  41.9969466   3.8511848  68.1534576
  41.4868452   3.2249164  66.8733931   1.1002018  99.4214916   8.3068770
   1.7693569  99.3778324   8.9899290   0.6930019  98.5552597   8.3147907
  93.1815294  55.4765207   6.6359436  94.1260865  55.5598242   6.7667496
  92.8415254  56.3603384   6.7756188  53.2984924  91.7292118  38.6341667
  54.1566420  91.4371967  38.3266973  52.7689791  90.9321880  38.6588669
  60.3783372  43.2921297   7.0009625  61.1955121  43.0553038   7.4395668
  60.6386522  43.9328749   6.3392174  22.7763607  92.6873875  39.1401601
  23.4642269  92.7628136  38.4788036  22.4976303  91.7729092  39.0926194
  17.6907065  12.2427177  58.8409519  18.5660555  11.8713664  58.9509010
  17.7995589  12.9186153  58.1719637  20.8203700   2.4757957  83.9225769
  21.5083792   2.8996944  84.4355965  21.1549380   1.5947627  83.7549877
  23.3434393   8.8826942  88.6945724  23.8590529   8.0771922  88.6552238
  23.8555148   9.4678306  89.2528057  13.0571177   7.8763389  55.9354448
  12.3571875   8.4993076  55.7399273  13.2431414   7.4541187  55.0967789
  31.0333636   7.0726013  56.8269873  30.7367613   6.5705394  56.0679102
  31.2433340   7.9375648  56.4748764  76.5892076  88.9952755  40.5648232
  75.8384752  88.5486603  40.9561920  76.4279413  88.9536858  39.6222234
  95.8030510  88.1823063  66.0250092  95.6153202  88.9341736  65.4631472
  96.4406300  87.6671696  65.5306768  27.7655318  25.2846431  90.2910328
  26.9743159  25.8179950  90.2152157  27.5626662  24.4848823  89.8057938
  54.2868140   2.9435539  44.7041702  53.6946776   3.2910156  44.0371799
  54.1447070   3.5048007  45.4664278  92.7743435  89.1399097  45.0219870
  92.0891857  89.2106915  45.6866550  92.4862766  89.7212410  44.3182087
  47.4155763  63.4462149  18.2616150  48.2275823  63.7228472  18.6862957
  47.7024892  62.9871828  17.4721825  98.9899633  35.4947472  22.1640730
  98.1579254  35.0936318  22.4151707  99.3737528  35.7876206  22.9906106
  93.2154367  92.2284186  11.6371655  94.0320418  91.7300773  11.6048753
  93.4939525  93.1379128  11.7443144  30.5349636   8.6088109  79.0445280
  29.8722029   9.0849352  79.5448112  30.9085917   7.9890579  79.6710539
  60.4854700  23.1606143  92.5959449  59.7103259  22.6446145  92.3742970
  61.2220546  22.6247924  92.3017185  50.7459927   8.8437712  50.9502268
  50.6569433   8.3769143  50.1193571  51.3920546   9.5274031  50.7727814
  21.6879224  87.1197332  32.2042418  21.1989640  86.2974358  32.2355318
  21.4319610  87.5191022  31.3728452  98.2160232  95.2485550  61.6293764
  99.0456173  95.0479580  62.0627022  97.7097199  94.4388569  61.6947889
 110.0088020   3.2439068  71.7678738 109.8142312   2.6550376  71.0387611
 110.1585992   2.6615837  72.5126505  69.4374323  22.6665115  49.3772888
  69.6495724  22.5839114  48.4475517  70.2822685  22.6009512  49.8224688
  54.7766161   9.8891079   4.3376818  54.4474030   9.4937682   5.1448727
  55.7098818   9.6765250   4.3301743  54.0595579   3.5818541  57.4168205
  53.4677458   3.6809272  56.6710472  53.4816599   3.5565090  58.1794643
  96.3894913 103.1692249  33.6940575  96.0164330 102.2998781  33.8399863
  95.7459471 103.6169068  33.1448197  65.7595587  11.7881918   4.2296115
  66.4104319  12.1726739   3.6424372  66.2388659  11.1122131   4.7087276
  94.0211783  92.4634827  38.6581993  94.7310255  93.0763054  38.4663749
  93.4688196  92.4845732  37.8767371   0.0456450  24.6504927  26.8865061
   0.4992807  25.4811120  27.0297503   0.7474454  24.0170240  26.7367625
  13.4978151  94.1272510  47.4331379  13.4007835  94.7111297  46.6808748
  13.9860105  94.6428085  48.0750895  22.1361685   2.5880828  17.5441492
  22.2177505   3.1799757  16.7963266  21.2229800   2.3018399  17.5245416
  20.3806066  97.0795495  52.1237373  20.2643298  97.7979720  52.7454901
  19.5619439  97.0567358  51.6282558  54.0674162   5.3274161  21.7066908
  53.7971735   6.0404760  21.1281180  54.2661095   5.7564896  22.5389457
  16.3502359  99.7999156  20.9156394  16.6108274  99.0409750  20.3937840
  16.4233255  99.5033235  21.8227911 107.4510095  90.6501270  47.7225685
 107.3156951  91.5966476  47.7675152 106.6053793  90.2753258  47.9688740
  12.3460912  91.2812782  68.2924271  13.2709455  91.0742200  68.1582499
  12.2752904  91.4652956  69.2290974   6.1090993  83.3899260  28.6490703
   6.2655925  84.2877150  28.3562899   6.2133454  83.4264637  29.5998740
  80.9123406  73.1843782  38.7175131  81.5301482  72.4553037  38.7722540
  80.1015333  72.8398729  39.0918636   2.5887298 101.7586691  27.6232529
   1.8091010 101.2494177  27.4017215   3.2677983 101.4240796  27.0374656
  21.5216540  94.1260648  60.3467846  21.2346648  94.0634096  59.4357729
  21.6696548  93.2189727  60.6141996   5.0206279  63.1914092  24.4076657
   4.5462941  63.9340544  24.7814560   4.4496106  62.4392748  24.5640635
  34.4549489  20.2134490  41.0451651  34.1586804  20.2374983  41.9550419
  35.0190115  19.4415855  40.9972668 112.0030568  76.6330433  53.0668926
 112.4416087  77.2413970  53.6617136 111.0849068  76.6542888  53.3366728
   4.3615865  76.6325665  18.3420169   4.7459125  77.0430589  17.5674081
   4.9455022  75.9003044  18.5396516  48.5479592 102.1659044  79.5601749
  48.9834928 102.8470922  80.0725460  47.9723024 102.6454762  78.9644766
  27.3676919  82.0314050  10.4468977  27.4832725  82.7119065  11.1100626
  26.5430640  82.2550750  10.0153971   8.1297921  80.1366878  42.4880171
   8.8121509  80.5308533  41.9446421   7.6918553  79.5137048  41.9080687
  47.1975756   6.2137282  69.4549322  47.9916048   5.9247434  69.9046421
  46.6900539   6.6636592  70.1303673  41.3862085 100.3109116  48.6255360
  41.7739247  99.4844908  48.3375454  40.9069537 100.0856174  49.4229031
   0.6102847  93.6345375  74.2629290  -0.3356052  93.7199450  74.1436386
   0.7794379  94.0226496  75.1214123 101.3569043  90.8612276  18.1093478
 101.1102006  90.6144906  17.2180068 101.1358640  91.7905474  18.1704855
   1.8510150  85.6086946  52.7917624   1.3896655  86.3590670  53.1663752
   1.1835646  84.9257780  52.7257061  26.3359927 103.4233565  70.6682491
  26.1593007 103.7148285  71.5627050  26.0708856 104.1612024  70.1191282
  39.8624778   5.9415179   5.0693125  39.2880940   5.7507694   5.8108854
  39.5167208   5.4066259   4.3547672  50.2873659  18.8020587  64.4508553
  49.3594170  19.0283906  64.3882465  50.4779768  18.3441424  63.6321878
  33.6189938   3.3246061  55.2265263  34.2936778   3.0956066  55.8657408
  33.6241508   4.2815560  55.2052546 107.2817609  93.1231940  58.1637478
 107.9788563  93.7780190  58.2023859 106.9061158  93.1210268  59.0441513
  43.0254078  11.3139749   9.2881441  43.2376194  11.8544495  10.0491202
  42.5987768  10.5399072   9.6556199  58.0146122  11.9099283  27.5573540
  58.5392284  11.4013898  28.1757379  57.2031021  11.4108407  27.4646330
  72.2339439   5.7801193  40.8061266  72.1870804   4.8563010  40.5599642
  71.3643599   5.9800625  41.1526489  89.7347674 103.6851231  32.3426867
  90.1164708 104.0314216  33.1492925  88.8034413 103.8961173  32.4085975
  85.8435783  78.8204241  70.2809906  86.1186907  79.3456698  69.5295477
  86.2229929  79.2675496  71.0375309 100.9747884  97.6478595  34.7923422
 101.1881588  97.8853489  35.6947303 101.7734191  97.2408236  34.4565678
   3.4788655  96.3882626  20.5178857   2.9653834  95.5806578  20.5364013
   4.1174697  96.2500752  19.8183703  13.9154719  86.9583083  18.0980861
  13.5894632  86.8133593  18.9863098  14.8445701  87.1575118  18.2134950
   3.8051435  10.3583586   8.9004004   4.5182407  10.9821320   8.7639046
   3.6053389  10.4235828   9.8342401  75.6063843  13.9419734  26.0542083
  74.6715641  13.7800276  26.1811686  76.0375023  13.3587825  26.6789126
  32.1850394  89.2148769  56.9083977  31.2555694  89.0352512  56.7668009
  32.5315141  89.3883408  56.0331297  90.0370274  93.0381656  62.9703331
  90.2783821  93.8672197  63.3834267  90.6467328  92.9491222  62.2378254
 108.1448100  66.2889910  49.1490364 108.1390736  65.4180956  49.5462036
 107.4000976  66.7390442  49.5478964  22.3618220  87.2930182  52.8768778
  21.5255307  87.7534938  52.9462576  23.0216836  87.9826379  52.9492617
  94.5499144  99.7027624  23.8607764  94.5363364 100.3448213  24.5705700
  93.9361558 100.0489110  23.2129240  19.1064811   4.0840051  14.1220915
  18.8627100   4.3585917  13.2381177  18.8275862   4.8076582  14.6831405
   0.1378678  89.1784967  58.6739254   0.3131103  88.4611500  58.0648851
   0.9262060  89.7202886  58.6390495 102.2035716  90.1366699  58.1074047
 101.4988253  90.3024722  58.7335634 102.5505135  89.2806042  58.3584309
  24.8141360  17.3991549  59.7822428  25.5309272  17.4146736  60.4164362
  24.2161131  16.7289567  60.1130533  83.6296463  17.8966534  52.0967293
  83.4403038  17.0628548  52.5270319  83.9901924  17.6501679  51.2449741
  89.7048950  14.4214594  37.9914069  89.9359894  14.8772550  37.1820402
  89.2071724  15.0654304  38.4952068  78.2126904  12.9708338  32.2542453
  77.8888559  13.8470423  32.4630976  79.1065836  13.1137049  31.9431567
  42.9882669  22.2954488  81.4023495  43.1892920  21.3968539  81.6637897
  42.3993158  22.6173759  82.0847988  59.7185898  31.5028811  56.3147879
  59.0431023  32.1488714  56.5212822  60.0977898  31.2733078  57.1631575
   3.8410997 105.1537648  29.5958328   3.2917451 104.9217739  28.8470840
   4.7339534 104.9698075  29.3039393   7.3908900  82.2789574  45.4232264
   6.9942283  82.7044273  46.1834002   6.8431186  81.5098382  45.2662802
  56.1359787   4.5580649  14.1334343  55.3286171   4.3913677  14.6198666
  55.9579992   4.2267925  13.2531989  43.3918046  88.1107224  11.8216443
  43.0834912  88.9773703  12.0863962  42.6991605  87.7732802  11.2536645
   3.9527272  94.1985477  44.5612240   3.5562133  94.4652105  43.7318277
   3.7573527  94.9174989  45.1621962  33.3296394  99.4049097  31.5446544
  32.9655694 100.1904548  31.1364841  33.7073278  98.9102305  30.8174157
  90.2904034   2.9021344  56.6099882  90.7540417   2.5283986  57.3593807
  89.8532772   3.6778277  56.9613504   3.2779121  82.9526401  23.9086652
   2.6647329  83.1929780  24.6032739   3.3328103  81.9982529  23.9572906
  52.0507812  27.1767378  11.5463495  52.5701189  26.9779015  12.3254406
  52.6991463  27.3319125  10.8594894  30.4203725   5.6367636  26.9147778
  29.7017217   6.0510629  26.4371514  31.2066770   5.8896512  26.4310384
  14.7520518  36.6882014  21.3261223  15.5941844  36.8127441  20.8884740
  14.1049623  36.7556262  20.6240082  77.9479790   2.1929410  26.6642737
  78.7307644   1.6733043  26.4813662  77.2229767   1.5750712  26.5702677
   1.5242933  76.0624385  26.1346936   1.6443371  75.2990580  26.6995597
   1.5231418  75.7054091  25.2465701  26.9254565  27.2732306  44.4036484
  26.1265993  27.0016003  43.9516783  27.6078081  27.2244859  43.7341309
  53.1418943  92.2397268  14.1148067  52.5980901  92.8693832  13.6414754
  53.2049226  91.4875568  13.5261643  66.8551779   1.7225680  35.8203483
  66.1211300   2.2641090  36.1104107  67.5263596   2.3512362  35.5547857
  96.3004944  86.8839610  35.5082870  96.3506792  87.1610976  36.4231133
  96.6411135  87.6290632  35.0132775   1.4065670 104.3095509  48.9905310
   1.4479136 103.8954348  48.1285429   1.2386274 103.5870600  49.5955420
  26.1386180   7.5945896  67.9852581  27.0304036   7.3462033  68.2286835
  26.2087321   7.8750366  67.0727539 105.0072671  48.4019114   1.6027844
 105.1138450  49.3341325   1.7920887 105.7370330  48.1908019   1.0204613
  62.0297765  77.5566793  43.0473471  61.4664029  77.5739217  43.8210011
  61.8901204  76.6887332  42.6686621  10.6022214  93.8459635  44.5280552
  11.4135026  93.3559383  44.6619463  10.8629750  94.6016777  44.0016174
  55.6506395  14.5768285  54.0922785  55.9234619  14.8763013  54.9595213
  55.5406713  15.3809690  53.5848331  36.0841655  77.3184419  36.0381246
  36.6936111  77.2368837  35.3045321  35.5396365  76.5329743  35.9855914
  56.4721632  11.6043413  23.9528155  55.9636688  12.3560584  24.2570996
  57.2994518  11.9805837  23.6523795  69.8364210  36.3808155  30.3675532
  69.9663210  37.1643138  30.9018660  70.6042385  35.8382702  30.5473828
  20.3301715  93.9179588  39.2411256  21.1813115  93.4875465  39.1602707
  19.7612523  93.2527948  39.6285796  25.7515859  98.8458932  68.7142658
  26.1215781  97.9634023  68.6908865  26.5064048  99.4185365  68.8505125
  30.2213120  22.0901990  32.9197502  30.6749654  22.3503971  32.1180463
  29.6880627  21.3388848  32.6601267  76.0848188  23.8824296  56.8473816
  76.3294935  24.1439438  55.9597015  76.3018227  22.9511786  56.8911123
  53.9180326  35.5709410  17.0012188  53.0791044  35.8915615  17.3323226
  54.1683197  36.2048626  16.3291085  68.1019545  -0.1543669  34.2258143
  67.8435898   0.1838960  33.3684611  67.4889374   0.2521463  34.8383403
  79.0556431  14.3619871  26.4281321  78.2520723  14.7835708  26.7327189
  78.8455057  13.4282541  26.4134431  59.1410446  16.0860634  35.0939107
  59.0988207  16.2301850  34.1485643  60.0428581  15.8078122  35.2537227
  63.8272572   2.5411481  43.8702250  62.9895878   2.3145594  44.2742062
  63.9380598   3.4736812  44.0555286  39.2061186   9.4421375  62.6586056
  40.0331163   9.3376321  63.1291199  39.2454505   8.7914395  61.9576931
  63.5635662   6.1819375  10.1525605  62.6321793   6.3675976  10.2720606
  63.5909462   5.5427277   9.4405961  40.6948709  40.0714540  47.1845961
  40.5825424  40.6035280  47.9723263  41.5364981  39.6330070  47.3097229
  15.4258870  92.8076256  31.3674927  14.6682548  93.2619584  31.7360091
  16.1760282  93.1742716  31.8355656  53.1803703  27.0870304  42.2028351
  53.4215784  26.1678696  42.3176956  52.8872347  27.1459007  41.2935257
  57.4745417  15.1236641  47.0870352  56.6391659  15.0755525  46.6222095
  58.0841684  15.4904556  46.4466858  47.6138448 107.1959463  42.0052242
  46.8675088 106.6017242  41.9270277  48.3336305 106.6387493  42.3013020
  32.1192503  10.6194985  65.7014894  32.1655822  10.7639468  66.6465902
  31.2054133  10.7947361  65.4769278  72.0927000  18.0861604  15.5320728
  72.7824211  18.0987859  16.1956668  71.4538145  17.4546719  15.8626449
  19.3831729 105.8601592  12.4384534  19.0183400 105.3927982  13.1899190
  20.3274869 105.8651391  12.5949275  41.3483143   3.8801065  60.2082968
  41.1513853   3.3642524  60.9901857  42.2034168   3.5609671  59.9198961
  37.9187011  93.8716698  26.3736606  37.7807283  92.9676056  26.6562629
  38.5707425  94.2164541  26.9837403 106.0812733  69.8817373  58.3701468
 106.2283776  69.2899848  59.1079950 105.6922147  70.6628681  58.7634611
   0.7225584  69.6779276  60.3401756   1.2528991  69.7080184  59.5438957
   0.3374027  68.8016368  60.3384542  25.0930642 100.7635481  49.6752930
  25.0854777 101.6142285  49.2365217  25.4273366 100.9495915  50.5527210
  34.0168618 103.0364553  33.9671659  33.3449935 103.6574007  34.2486811
  33.9852952 103.0665982  33.0109620  42.1183395   2.0916471  38.9104033
  42.2663736   2.3611365  39.8168778  42.3086739   1.1535750  38.9052892
  16.3188266  81.4690543  39.8630476  16.1756562  82.1899772  39.2498565
  17.2692346  81.4310718  39.9703693  19.6154498  82.5228835  69.4909430
  19.4022893  83.4094835  69.7820377  18.7778186  82.1556140  69.2085934
  50.7620955  32.7895641  55.9420061  50.6480122  32.5637913  55.0188351
  51.4732122  33.4302902  55.9457731  13.2987641 101.3527513  57.7020884
  13.2970237 100.7700676  56.9426775  12.9074001 102.1653015  57.3814249
  36.7478251  20.3350329  28.9931941  36.7766333  20.0467849  29.9055076
  35.8599901  20.1250267  28.7035799   7.0821380 101.0791255  28.5757327
   6.6362428 101.8850828  28.3152628   7.8187513 101.3750494  29.1105771
  87.7067420   5.3524130  68.6510218  88.2379719   4.6633690  69.0500725
  86.8799159   4.9218481  68.4337509  64.9120092   8.6844307  22.1367550
  64.3085003   7.9420310  22.1075368  64.7158337   9.1839093  21.3441205
 100.9464691  89.7558368  61.1947441 100.6538556  90.2964581  60.4610300
 100.8754013  90.3291298  61.9579697  98.8065478  89.1795581  90.7716567
  98.8010356  88.2577103  91.0293411  98.8973853  89.6580523  91.5956848
  90.4764400  80.9537697  79.6154976  89.7731910  80.3281117  79.7893524
  90.4451070  81.0923863  78.6689091 109.4436548 103.3846263  62.3386908
 109.4200108 102.5230212  61.9223833 110.1382825 103.8545773  61.8773079
  62.4982643  34.9142957  47.6781464  62.1309662  35.3938127  48.4207010
  63.0078602  34.2089558  48.0769491  47.6161528  11.7177176  34.3380857
  46.7843008  12.0114267  34.7095490  47.3964453  11.4393234  33.4490085
  45.7737207  10.7529771  36.8123460  46.0026026  11.4553356  36.2036252
  44.8172092  10.7671833  36.8457127  69.7026300   7.0631379  39.5196128
  69.9193954   7.8118968  38.9640927  69.6958494   7.4183512  40.4084396
  96.8726680  83.0169416  43.7731075  96.1575244  82.4755002  43.4389782
  97.4808238  82.3927618  44.1690588  32.2466659  67.4501157  50.8991337
  33.0296516  67.9679919  50.7121229  31.5209150  68.0639244  50.7862186
  72.0839548  12.8036582  23.9098907  72.1821928  11.8858910  23.6563492
  72.6302099  12.8962970  24.6904397 113.2290552  88.6841941  48.7047100
 112.4623678  88.3038390  48.2760477 113.2999871  89.5632732  48.3326626
  11.8122338  83.3561493  82.8938961  12.1385526  83.9822960  82.2476101
  12.5998782  83.0244542  83.3249664  28.4886503  24.8086286  34.3768740
  27.9567695  25.5544543  34.6545005  28.3199382  24.1355038  35.0361705
  66.3699579   7.2553331  38.5563564  66.1033297   6.3527715  38.7310696
  67.2631645   7.3112082  38.8959074   8.2822322  74.0091229  42.6384306
   7.4470519  74.4721366  42.7041674   8.1268453  73.1716705  43.0751896
  78.0457640  13.3039999  48.5896635  77.1677876  13.2647967  48.2103872
  78.3745241  12.4073029  48.5257721 111.2499092 102.8841070  69.9919605
 110.4708860 102.6435796  70.4934597 111.0346553 103.7341515  69.6081352
  25.0274753  98.5537518  29.7256327  25.9262990  98.4044189  30.0189662
  25.0748538  99.3575955  29.2081165  21.9952201  73.6048127  26.9224524
  21.3916349  72.8922415  27.1325779  22.4216317  73.3263612  26.1119771
  23.3483361  78.4898091  14.9236822  23.3975362  78.0386115  14.0809298
  22.5940179  78.0963421  15.3623414  84.7953740 104.2756042  50.0063753
  85.3295741 103.4813434  50.0029135  85.3765235 104.9536141  50.3510475
   5.1579904  81.2743164  27.1954226   5.5604219  81.7859936  27.8971815
   5.6391048  80.4468132  27.1961880 104.6975849  96.0042275  62.6383638
 105.1956103  95.6961156  63.3955097 103.9803288  95.3763044  62.5518274
  52.6990032   0.4173041  28.6967278  53.1413364  -0.4242293  28.5853934
  53.3466816   0.9727836  29.1305280  16.4019120  49.6651030  40.1569653
  16.4983416  50.5707884  39.8625779  17.2969544  49.3725300  40.3288174
  45.3655910   4.4924551  32.2430325  45.0472069   5.2925497  31.8250418
  45.9242296   4.0830433  31.5823245  21.8829107   6.9610125  29.5265174
  22.0182896   7.0191252  30.4723120  21.5230131   7.8139579  29.2832255
  30.7531691  12.6882768  67.9112434  30.3813291  11.8511474  68.1890583
  30.0406814  13.1231415  67.4427509 103.9275715  62.0464135  54.2541456
 103.0870841  62.2334385  53.8360119 103.7277410  61.3705159  54.9018049
  39.3584824  24.8584580   7.2314465  40.0606489  24.7126174   6.5974724
  38.9474654  24.0002513   7.3352683  31.1712313  16.6256857  36.8955731
  30.8861709  17.5311434  37.0185256  30.3587794  16.1202383  36.8695617
  29.9957395   0.6596740  49.5355225  30.3368855   1.5460870  49.4166803
  30.7757926   0.1147993  49.6397543  29.0649652  11.8967521  38.2981825
  29.4484949  12.6608360  38.7286615  28.7778616  11.3351643  39.0181971
  18.0078566  12.2111011  41.3900232  17.6304483  13.0838573  41.4999819
  17.4066663  11.7634416  40.7947063  65.2008057  15.5167902  16.9040799
  65.4736471  14.6000075  16.9401205  65.8432913  15.9792268  17.4422181
  32.9764390  12.2667563  33.6639643  32.0728946  12.0252347  33.8677001
  33.2729435  11.5917695  33.0534673  29.9772048   7.8424686  35.9077048
  29.0448928   7.7337003  36.0953021  30.4047108   7.1463627  36.4066124
  25.8832072  86.4440728  57.6714230  26.2963103  86.2646390  58.5160398
  25.3229856  85.6843615  57.5125933  40.7820129  30.6421781  64.4000864
  41.0113764  31.5686798  64.3278360  40.3933334  30.4248738  63.5527754
  68.9767265   9.2184663  13.3728898  68.8328266   8.2820892  13.5097206
  68.1252432   9.5530117  13.0913067  57.2532177   9.9515867  32.3692012
  57.6241875  10.4196107  33.1172442  58.0035400   9.5198172  31.9607615
  28.5262679  98.5044820  56.8489408  28.5812472  99.3906332  56.4912462
  29.4098281  98.1503273  56.7482996  40.2445745  26.9379735  29.0482450
  40.2849388  27.7523613  29.5496154  40.1117420  27.2201729  28.1432867
  96.4378164  86.5789509  39.4249487  96.1801193  87.3586548  38.9331293
  95.8300493  85.8996749  39.1326594  91.6009400 104.5130326   1.0039862
  91.1646078 105.2467608   0.5709856  90.8904622 104.0207470   1.4152125
 105.6265304  84.0153170  56.7170954 105.3835938  84.9284745  56.8699217
 105.1667950  83.5275770  57.4004555  50.9400892  17.3773837  60.0039959
  51.3281822  17.0271027  59.2021751  51.4161110  18.1921923  60.1643705
 112.6358554  98.8147247  41.3699007 112.8949616  99.7341556  41.3087225
 111.9183276  98.7258441  40.7426167  26.4790630  95.4399455  38.1028628
  27.3478460  95.4167379  37.7017331  26.2036990  94.5236409  38.1310201
  84.5528889  16.1881888  47.6739740  83.6251259  16.2813330  47.4576235
  84.7153854  15.2458572  47.6311207  77.1750832  27.2294497  48.6105871
  76.5358210  26.6157055  48.9723778  76.9371033  28.0750251  48.9908457
  49.4791079  32.4713850  66.4623642  48.5548592  32.2852397  66.2969971
  49.4854259  33.3635020  66.8092346  22.6041174  15.7002664  24.5578146
  23.1459308  15.7010126  25.3469062  21.9141078  16.3380444  24.7404552
  95.1495692  67.7723914  91.5119784  94.3443915  67.5845891  91.0296388
  95.3895184  68.6587184  91.2416432   0.0824975  89.5390165  39.7752285
  -0.4734612  89.8374403  39.0554476   0.7772254  89.0370811  39.3490314
   7.6390976  30.1321435  47.8095484   8.2413721  29.4369769  48.0745792
   7.2639370  30.4500031  48.6308002  28.8444327 105.7667237  20.5370879
  28.1934833 106.3949353  20.8498979  29.6093606 105.9179418  21.0922885
  30.6090760  22.0237589  50.4495573  30.2903366  22.5444174  51.1868191
  30.3281569  21.1304808  50.6479836  37.1002769  78.3756543  49.6997309
  36.7537164  78.4406758  48.8098431  37.5475406  77.5296522  49.7213602
  58.3884335  18.5750711  46.5174675  58.8895845  17.8867197  46.0801506
  59.0271521  19.0184808  47.0757294  52.0064211  21.8907762  29.3209147
  52.4389648  22.7151847  29.5433760  52.5513220  21.2170458  29.7276115
  28.3897161  28.6376548  86.5782928  28.4442925  27.7323103  86.8842506
  28.3807778  29.1611433  87.3796177  66.3805819  11.1073601  43.9874792
  65.5010796  11.2365925  43.6325073  66.8524027  10.6438208  43.2955599
 102.5100706  12.4591386  43.6059904 102.6463364  12.4223387  44.5527267
 102.1130131  11.6158450  43.3882046  30.2646827  65.2468873  12.8186655
  30.9703635  64.9994803  13.4161925  30.6858396  65.8133317  12.1721351
  78.9254236   7.8519338  36.7297506  79.4693089   8.6395603  36.7376781
  78.0650663   8.1578565  36.4426446  46.3012838  13.3047521  12.3153579
  47.0661640  12.8025270  12.5963616  46.3670492  14.1301262  12.7956343
  51.7884588   2.8164729  52.1861887  51.6723251   1.8920523  51.9666624
  52.7353859   2.9243875  52.2751713  83.5422812 102.5988660  61.2717581
  82.7972624 103.1296662  61.5535879  83.4195653 102.4957666  60.3280735
  77.4860445  91.1262608  56.7823172  78.1439183  91.6702390  56.3492823
  77.9483426  90.3157855  56.9959593  28.5118674  79.9826980  12.2994959
  27.9785155  80.5555177  11.7484558  29.3491458  79.9198986  11.8398678
  16.0036468  78.6641408  43.9764833  16.7516994  79.2457939  43.8410854
  15.4228686  79.1526938  44.5597887  40.5735207  11.3134885  12.1144116
  41.0877991  11.6154230  12.8631330  41.1878252  10.7940233  11.5957415
  50.2093935  19.4731033  72.1747398  51.0147142  18.9658546  72.2766733
  50.4191351  20.1233435  71.5043449  13.3372592  59.0013791  36.2772417
  13.4056186  58.1391907  35.8671284  12.4696302  59.0061999  36.6814995
  43.2046746  78.7250662  56.8205690  42.9636335  78.8102580  55.8981371
  43.9704751  78.1508208  56.8159676  53.3599854  19.6128857  63.7343407
  53.7435007  19.1177297  63.0104876  52.4538898  19.3076658  63.7797785
  21.3234615  94.2259551  43.4744787  20.7890605  93.4942616  43.1658173
  22.1626424  93.8283933  43.7067556  49.1934395  15.1422024  71.8125820
  49.0420103  15.3541052  70.8914948  49.9179125  14.5167625  71.7984915
   9.6202090  72.1896751   0.8742630   9.0632536  72.7188964   1.4451897
  10.5030920  72.5302703   1.0182774   1.8017983 104.2906166  27.4207401
   1.9715714 103.4035427  27.7377725   1.1524152 104.1767675  26.7267871
  22.0784998  28.3480358  60.3415251  21.4352727  29.0201020  60.1161003
  22.4296069  28.6266398  61.1873007  40.4355383  14.3825197  62.2095728
  39.5757580  14.3727481  61.7889595  40.8682013  15.1579738  61.8522072
  66.5368605  26.7361951  46.0406780  66.6882563  25.9965539  46.6290998
  67.2881889  26.7281723  45.4476595  62.7006721  36.1985826  79.0694475
  62.9540300  35.3312492  79.3853235  63.2693911  36.3544440  78.3154631
  58.4879351  25.3381062  39.6247435  57.7318764  25.8105898  39.9731255
  59.2395020  25.7233047  40.0753021  54.2453671  19.2109156  33.3481264
  53.4090853  18.8094020  33.1122327  54.7652864  18.4901369  33.7036467
  26.4018153  54.2228461  58.3829689  27.2868156  54.0449572  58.7013340
  25.8317088  53.7268401  58.9704943  61.4519691  15.7762825  68.1745243
  61.6022635  15.5749428  69.0981627  61.5174294  16.7298794  68.1235266
  30.7720374 100.9824575  25.0622106  30.3745507 100.3567142  24.4566679
  30.0299215 101.4534456  25.4412484  47.5508499   9.5845920  48.0980921
  46.7927837   9.2586851  48.5832214  47.1747255  10.0670850  47.3619127
  22.6248359  79.3190981  61.4432716  22.4692964  79.7947813  62.2592163
  22.5153255  78.3977485  61.6785526  54.6839046   2.5365773  29.5587254
  54.9195194   2.8959742  28.7034178  54.2080975   3.2444715  29.9931526
  86.2065411  22.4717784  59.9400806  85.6431866  21.8831611  59.4376945
  85.6315613  23.1928706  60.1963186  78.8232279  14.5068824  41.7268372
  78.0912018  14.9329472  42.1727467  79.1610622  15.1742756  41.1296034
  52.3597193  16.9126058  54.7214222  52.5380087  16.3377166  53.9771461
  53.0824947  17.5401521  54.7178698   0.9944748  94.1044689  35.8502769
   1.4718651  94.8664559  35.5220890   1.6756105  93.4608245  36.0452271
  39.2544841  84.7058297  36.0592341  39.7235774  84.3813444  36.8279290
  39.8702382  85.3059030  35.6385303  58.3386564  15.1485443  42.8806448
  58.5794830  15.7419527  42.1692371  57.7150297  14.5400941  42.4842739
  65.9375525  20.5386829  60.6553125  66.0218620  20.6091118  61.6061878
  66.2495756  19.6569371  60.4518509   8.4704827  91.6886187  28.8296485
   8.4040164  91.5798724  29.7783256   9.4115638  91.7193294  28.6574411
  19.2204713  78.6586118  41.1566305  18.5405826  78.5769773  41.8254519
  19.9220895  78.0806685  41.4565372  12.6755536  18.6602128  62.4854040
  12.3672855  19.4574821  62.9161787  12.8087831  18.9171469  61.5730095
  67.9523468  13.6730349  26.6655159  67.2400379  13.7500155  27.3002744
  68.5274124  14.4131327  26.8599081  25.2155160  83.1219173   9.4407636
  24.4890260  83.6978841   9.6789008  25.1324557  83.0106783   8.4936845
  48.5362673  16.8568194  16.0203838  49.3957043  16.8808532  15.5996418
  48.1478930  17.7085745  15.8206153  53.8092566  18.2921982  58.9285278
  54.6853495  18.4199369  58.5646915  53.4299421  17.5907803  58.3990335
  81.9340134  17.6323569  56.2047291  81.0867214  17.1883941  56.1697817
  81.7791462  18.4775245  55.7828999   6.7768621  74.6629620  30.7969952
   6.1763524  75.2493930  31.2571239   6.2530278  73.8846660  30.6070280
  85.0513045  99.1549498  87.1624470  85.7355938  99.2298997  86.4973450
  84.4865987  98.4495307  86.8466568   4.4340896 106.0019959  39.4274569
   5.1763200 106.0439797  40.0304222   4.3825483 105.0801644  39.1748667
   4.3448209 103.2081470  39.7149420   3.9108323 103.2625208  40.5663729
   5.2356338 102.9227388  39.9179697  53.3394957  30.7890248  38.5645366
  53.6508512  30.2601385  37.8299832  54.1303062  30.9968925  39.0621781
  54.4475698  20.3888845  36.1497688  54.1424656  20.1255536  35.2815509
  55.2796125  20.8331203  35.9866977  10.3778981  88.7878621  17.8795111
   9.4285630  88.8671768  17.7862167  10.5574512  89.0926552  18.7689447
  10.6904983  68.4628249  12.8564250  10.3692626  68.2252122  11.9866085
  11.1235570  69.3069649  12.7294648  26.4011717  23.9891863   8.5965288
  26.6361713  23.8851690   7.6744729  26.7587280  24.8430705   8.8399732
  55.0730228   1.4419629  80.2351189  54.6320343   0.5974045  80.1430130
  55.1118231   1.5901169  81.1799908   0.8720779  87.4491346  24.7133398
   0.5355739  87.6475823  23.8394880   1.7158412  87.8993774  24.7530246
  98.1995413  70.3511167  74.7472048  97.7976701  70.5728675  75.5871773
  99.0477393  69.9733663  74.9797964  40.1671553   1.6987871   4.6146405
  39.6062779   1.5241341   3.8588986  40.5189180   0.8416351   4.8550260
  17.9834413 104.6058567  49.8379374  18.9390182 104.6263783  49.8897362
  17.7428006 103.7491966  50.1907206  61.5639544   8.1109411  53.6414051
  61.6468048   7.1687227  53.7883472  60.9537601   8.1861913  52.9077625
  37.4938249  82.4845267  50.6810474  36.5427922  82.4242807  50.7712412
  37.8080081  82.6586485  51.5682936  54.3651390  20.4420638  42.5340366
  53.8612556  21.0365343  43.0898666  55.2336407  20.4170418  42.9356670
 111.8381593 104.1724098  61.0330105 112.6669977 103.7254349  60.8613348
 111.9105814 105.0013437  60.5598783  12.1046388  12.4178827  28.4009337
  11.7719615  13.2275045  28.7883234  13.0534649  12.4693942  28.5162854
 111.0329697  82.5243164  53.5183668 110.4368160  81.7756463  53.5363770
 110.9321258  82.9315377  54.3787336  77.9410124   9.7054291  70.6911993
  78.3661509   9.5100999  71.5262651  78.4323120   9.1953748  70.0472260
  64.1939160  44.3702018  85.8226872  64.6686813  44.7493356  85.0830335
  63.7005493  43.6430019  85.4432136  75.0844907 105.3694231  45.6693935
  74.8154401 104.5835534  45.1937389  75.4494428 105.9436930  44.9961472
  14.5342063 101.4553995  24.5219016  15.4313563 101.6630614  24.7831082
  14.5269822 100.5030275  24.4261575  36.4098740  21.6843581  70.9604311
  36.9551945  21.2062287  70.3357315  36.9151258  21.6779375  71.7733955
  40.2746630  51.8805361  51.5494871  39.9225235  51.8918657  50.6594849
  41.2137985  52.0277929  51.4373732  34.1304969  98.5982699   8.5621452
  33.6321353  98.8588763   9.3367130  34.7720670  99.2986227   8.4433126
 101.1611675  24.9968362  68.5863161 101.5611146  25.8662987  68.5688019
 100.4565226  25.0702500  69.2299891  75.2329874   8.3797348   5.2974713
  74.5508862   8.2967389   4.6310750  75.3024578   9.3216425   5.4530853
  62.5654221   4.2930683  69.7233438  63.1106472   3.6066693  70.1078176
  63.1837368   4.8600289  69.2623997  81.8304634  18.4915316  40.7760191
  81.6540337  19.2471254  40.2155018  82.7225876  18.6317897  41.0933018
  41.8682575  26.4127231  41.4721346  40.9152508  26.5003777  41.4540720
  42.1181822  26.6957712  42.3517132  33.4676504   9.9296117  32.5666952
  32.6822186   9.5125782  32.9208255  33.9204907   9.2285180  32.0980406
   3.1402015 106.6807304  33.7646532   4.0337371 106.5163996  33.4632874
   2.6068782 106.6307595  32.9713702  81.0204124  40.3273821  29.6741796
  81.1005783  41.2275696  29.3587947  81.2399387  40.3790665  30.6044292
  21.7009687  24.0621185  58.0924654  22.3217726  23.8994431  58.8026571
  21.0869837  24.7019100  58.4529018  64.8758411  21.6993022  45.0308323
  65.7303143  21.8647647  44.6324110  64.2466021  22.0622158  44.4074678
  51.7575932  21.2304211  47.3485708  51.2629318  21.7525339  47.9801893
  51.0934162  20.8804083  46.7547703  62.4993563  53.3510542   7.5875461
  63.1623936  52.7226067   7.8733230  62.0173979  52.8939629   6.8983305
  35.4576969  23.0522561  75.0317526  36.2160683  22.6998496  74.5660162
  35.7474041  23.9078736  75.3483295  81.0117626  24.6936488  37.4564338
  80.2241802  24.7315407  36.9137335  81.0095119  23.8083148  37.8203154
  75.6382847  26.0152936  50.9258366  75.5051804  25.1752973  50.4866076
  75.5992413  25.8063889  51.8591452  36.4777923  39.4809508  25.7234192
  37.0851970  38.8607764  25.3200889  36.6480660  39.4067097  26.6624212
  39.9548507  24.5575500  21.5408754  40.2372456  23.6461759  21.4641762
  39.0710258  24.5046353  21.9045901  45.9567308 103.6275766  50.1616573
  45.7315206 104.0869436  50.9706640  45.1127004 103.3827746  49.7823048
  57.9468155  33.2827950  50.3634405  58.5945368  32.7365279  50.8087301
  58.3347225  33.4646988  49.5074797  59.3629360  20.9559917  12.7961969
  59.4167423  20.2011180  13.3822870  60.2695704  21.2458968  12.6951897
  67.3759556  33.2165766  50.2669096  68.3308935  33.1568336  50.2393723
  67.0791626  32.3065829  50.2744484 107.7205441 102.5051275  64.3535852
 108.3189890 102.8598220  63.6960983 107.7270505 101.5605736  64.1986370
  75.3462839  32.1588039   8.5885805  75.1371956  31.9680166   7.6741880
  76.3028431  32.1499968   8.6224121  96.7256949  92.7733684  49.1827679
  97.6654003  92.9543710  49.2033386  96.5331361  92.4082816  50.0464010
  31.3421965  25.1278710  51.9175434  30.7719398  24.6380591  52.5100994
  30.7844973  25.3396225  51.1689663  64.6870232  18.1265020  15.4884124
  64.6840191  17.4813950  16.1955619  65.4364872  17.8828526  14.9451196
  79.7489357  23.8150644  84.3481255  80.5379391  24.1887116  83.9555740
  79.0294838  24.3133140  83.9603424  89.5145035   5.2093369  32.4359798
  88.6645508   5.5530423  32.7110791  89.3664455   4.2711306  32.3173285
  22.0212077  87.9159916  21.8147278  22.4773311  88.3586777  22.5304174
  21.1595916  87.7047301  22.1741939  58.4030008  15.4034364  70.2797890
  58.5683393  14.5588756  70.6988525  58.3516741  15.2013016  69.3455839
  90.5632687  27.8654861  44.1516352  90.4248047  28.0555034  43.2237577
  91.3934517  27.3897076  44.1773987  72.4979401   5.8669651  29.7847319
  72.6917648   5.5509299  30.6672192  71.5607738   6.0611701  29.8003268
  40.1978302  55.3887844  48.7487173  39.6379995  54.7756815  49.2250872
  39.5869970  55.9960365  48.3311558  69.0237331  28.7629938  46.3613939
  68.2658625  29.1676831  45.9393883  69.4293404  29.4737887  46.8578672
  89.3598270  39.1382027  35.6033897  89.0707111  39.6685719  34.8608589
  88.6080551  39.1254783  36.1957669  73.5462046  47.5029850  28.0457401
  73.4920454  46.9205236  27.2880888  72.8869820  47.1675634  28.6533189
  53.9432621   7.0336872  70.2392483  53.5992336   7.9083699  70.0581264
  54.1940737   6.6924733  69.3808174  50.6599522  11.9270229  37.9442143
  50.3243303  12.8219342  37.8920245  51.5883446  12.0311773  38.1527042
  70.8114004   9.9198472  37.8800368  71.5147161  10.3538895  38.3629274
  70.1203871  10.5793893  37.8188872  73.6128712   9.1572332   8.0472308
  73.4537697   9.9916106   7.6059467  74.3609571   9.3277842   8.6195189
  96.7639732   0.6750455  45.6983137  97.6910877   0.5002476  45.8600044
  96.7601871   1.4605668  45.1513433  32.7921176  24.8329401  30.9407544
  32.8044796  23.8785291  30.8687758  31.8771243  25.0724053  30.7935286
  77.6574183  38.7022781  27.0633078  77.4786901  38.5053086  26.1438012
  77.6745462  39.6584368  27.1044874   6.5258168 100.2911288  49.2376328
   6.5987443  99.4994373  48.7045860   5.5949020 100.3503734  49.4523716
  63.6557961  21.6863418  75.5998373  64.0036583  21.1014771  74.9266672
  64.1786051  21.4935017  76.3781166  51.3693380   9.6251792  28.9707518
  52.0410156  10.1335573  29.4253230  51.3772631   8.7733775  29.4073343
  37.2981906  24.5105386  18.3426702  37.9308796  24.9569082  17.7799153
  36.8323612  25.2184081  18.7878156  37.0968318  29.6684718  37.8403449
  37.9656363  29.7028279  38.2406354  36.5812874  29.1219807  38.4334683
  19.1275048   3.3456469  86.5355301  18.8526118   4.1733319  86.9299889
  19.8202276   3.5910249  85.9222126  55.0865555   4.1525933  74.2824459
  55.6607342   4.2345259  75.0439215  55.1137829   5.0150108  73.8680506
  53.9358330  24.9224305  60.2671146  53.7648487  25.8170915  60.5613565
  54.8505974  24.7642779  60.5004025  29.7516727 105.2239547  72.0407152
  30.6966781 105.1163599  72.1485090  29.5546340 104.7916608  71.2097359
  71.9714594  26.3876963  38.5712528  71.4566755  25.9329057  39.2378855
  71.7729235  27.3143077  38.7061834  45.9269333  24.5137453  10.1423907
  45.6092930  23.7550688   9.6527541  46.4943600  24.1423821  10.8179271
  87.0998096  39.1124511  28.7003946  87.3198318  39.2100883  29.6268320
  87.8517532  39.4796467  28.2356477  64.3091917  36.9385076  37.1029162
  63.9929867  36.4467335  36.3450217  64.8433304  36.3109064  37.5897908
  52.7011299  26.6837335  36.7913055  52.6545763  27.2203374  37.5825834
  52.7492189  25.7840395  37.1145225 103.9677620  28.7664890  47.9004002
 103.1134701  28.6384797  48.3127451 104.3491364  29.5110035  48.3656693
 103.1890583  37.0729566  34.3276787 103.8572788  37.6460147  33.9517617
 103.2974148  36.2424946  33.8641858  76.7300987  22.2664213  25.2304530
  77.0296288  21.3631940  25.1270342  75.7751226  22.2065139  25.2046061
  84.1557217  22.3526049  50.2737713  83.9449120  23.1787062  49.8386335
  84.5278358  22.6137447  51.1161327  33.0237579  67.8965259   5.9869426
  33.6575984  68.5012842   6.3726175  33.5549020  67.2892166   5.4718781
  26.2748527  89.9999059  38.7539434  25.9360837  90.8120931  39.1305327
  26.7340993  90.2768171  37.9610729  42.1626710  82.6477552  44.5456409
  42.2611188  82.2050119  43.7027168  41.9498872  83.5526801  44.3174648
  42.9587411  93.5197032  86.3589382  43.4492826  94.0351797  85.7187080
  42.6073693  92.7848673  85.8561611  49.7771406  16.9045126  29.9668741
  49.2537880  17.6591349  29.6969056  49.3211794  16.1506295  29.5927167
  70.4264116  10.0469053  46.8682766  70.7941628  10.1185715  45.9874487
  71.0366249  10.5330062  47.4228716  29.1151261   3.1021708  52.8776693
  28.9676046   2.2222242  52.5310278  28.3754945   3.2550552  53.4657192
  67.2731113  24.5531321  60.4248667  67.6389694  23.9842534  61.1021805
  66.4359379  24.8461795  60.7847166  59.7561121  28.2323384  56.2110806
  59.9451447  28.9876962  56.7677975  60.2009106  28.4257221  55.3858566
  72.4148989  12.2259378  46.0977268  71.9027233  12.8931224  45.6408119
  72.0214224  12.1768880  46.9689322  32.3129462  90.0540066   0.2214530
  32.3879432  90.7711804  -0.4080458  33.2064962  89.9171806   0.5362228
  76.8788862  28.9401007  15.0134206  77.7281666  29.1731262  14.6383774
  76.5836287  28.1935024  14.4922245 107.4335575  28.5910034  48.0761194
 106.6656494  28.0963969  47.7899170 107.1243858  29.4942141  48.1457949
  83.6785698  31.4154029  20.3592825  83.1912422  32.1513867  20.7295108
  84.4153690  31.2908506  20.9574795  74.5370245  45.6395102  24.7276306
  75.3261280  45.3743124  25.2000809  73.8399363  45.5958176  25.3821468
  42.9210091   2.7305463  63.4335518  42.8345251   2.1484077  64.1884470
  42.5685263   2.2260493  62.7004290  50.5988741  11.6173720  41.4012480
  50.8939314  12.1637654  40.6728029  50.9688616  10.7537818  41.2180710
  57.8533840  10.7176673  34.9633193  58.3736658  10.6407917  35.7630873
  57.1188354  10.1186502  35.0969315  68.7601662  11.6421068  50.4551172
  69.5772362  11.1819577  50.6471777  68.4866381  11.2994838  49.6042204
  44.6003771  15.9077251  14.9438906  45.4817629  15.6754684  14.6515751
  44.1162348  16.0752165  14.1353226   3.2325771  27.7207351  38.4456325
   3.9704579  27.1196938  38.5481763   3.0615941  28.0432320  39.3305016
  62.4787140  16.1507320  45.6336021  63.0829954  16.7076159  46.1244822
  62.1929836  15.4915535  46.2661171  30.9330082  40.6746244  40.8946133
  30.0999117  41.1413050  40.8283567  30.8871102  40.2209139  41.7362022
  57.6779556  47.2199106  20.6103444  57.4229145  47.9314518  20.0230646
  57.1597815  46.4702654  20.3174925  40.3959799  16.2318599  14.1014981
  40.6115627  15.4070973  14.5368373  39.4799423  16.1333466  13.8418746
  19.9518203  99.6098656  53.2439423  19.8379850  99.9672193  54.1246033
  19.2496967 100.0096012  52.7306509  30.1176643  14.4302988  38.9124990
  31.0290098  14.1654277  39.0370846  30.0045586  15.1809466  39.4955659
  94.1374302   6.2769890  30.0279784  93.2636547   5.9642333  30.2623296
  94.1762543   7.1659398  30.3808117  38.5216475  53.3230019  49.4262457
  38.0444908  52.7698040  48.8077593  37.8633428  53.5862589  50.0693321
  35.5198216  12.0018637  21.0101366  35.9408784  12.5247240  21.6924572
  34.5822573  12.1281469  21.1559319  74.6311378  13.9776063  44.9944687
  75.4581404  13.5828924  44.7178793  73.9770842  13.2958555  44.8406458
  64.5011568  31.7849255   2.3031147  64.3091393  30.8589673   2.4513093
  65.2641344  31.9623399   2.8532276  38.8208388  91.1293591  49.8181343
  38.4680556  91.6382194  50.5480909  39.4020414  90.4902793  50.2304602
  92.0039749  21.6369081  31.2495732  91.6938114  22.1434379  32.0002127
  92.9580784  21.6598415  31.3229156   7.9725646  87.6062942   3.7910676
   7.5661420  86.9420183   4.3476549   7.6111602  87.4426473   2.9199541
  96.9064617  19.4572878  37.7317739  96.7415047  18.8314462  37.0265460
  97.3186302  20.2041912  37.2976279  52.8103065   3.2571140  59.7554016
  53.1937122   3.9228964  60.3263378  52.4946642   2.5806904  60.3546143
 100.6667206  95.0484491  24.8351908 100.7315800  95.4125369  25.7180643
 100.1669357  94.2396141  24.9457860 106.1945820  21.5494680  56.6325045
 106.0889149  20.6293678  56.8743372 105.4719543  21.9972491  57.0724297
  37.6429987  19.5045543  74.3471479  37.6941371  20.2153659  74.9861813
  38.4018850  19.6379840  73.7792397  79.0971327  27.3462176  44.6582031
  79.7204542  27.7141500  44.0318441  78.5929823  28.0997705  44.9651670
  49.1887903  38.6952209  21.2250543  49.4105005  39.5237255  21.6500926
  48.2759809  38.8003874  20.9568214  44.4327593  15.3072274  51.3196468
  44.9315548  14.9827373  52.0694017  44.6867800  16.2269092  51.2428999
  80.6702614  13.6392498  16.9454551  80.6702614  14.5035660  17.3567808
  80.8626270  13.8125467  16.0239375  61.5422344  33.3290839  49.8035955
  61.1394072  33.7146139  50.5816221  60.8032751  33.0986738  49.2404985
  44.7642946  33.2076192  48.5052729  45.6019592  33.5802317  48.2301188
  44.3708992  33.8839293  49.0567064  52.0078564  17.5097573  18.6352825
  51.5979528  17.9074991  19.4034064  52.0510387  18.2181883  17.9930270
  51.9271707  88.8174439  54.9283457  51.3654374  88.2385076  55.4436255
  52.6925515  88.9652300  55.4838467  57.7595663  47.3474741  14.1918695
  57.8629971  48.1285715  14.7353971  56.9366169  46.9576550  14.4868720
  15.8427524  95.7973075  38.1086087  16.3661622  96.3761426  38.6628866
  15.6627702  96.3152707  37.3240376  43.6435270  15.7364333  46.1673355
  44.5863247  15.6658614  46.0177183  43.5673189  16.0790360  47.0578671
  31.0198379   2.5347656  64.5236206  31.6371703   2.1677506  63.8908243
  31.3262486   2.2130130  65.3714514  22.7316594  28.3008814  42.2699165
  23.1412005  28.3538294  43.1334591  22.7487111  29.1997170  41.9412279
  59.7700930  21.1785698  56.1224604  59.5120478  22.0193100  55.7445669
  59.8953009  21.3627410  57.0533943  71.3608313  31.8140149  40.3630447
  71.2830830  31.4039350  41.2244511  71.7585897  31.1400032  39.8119307
 111.4756129 106.0085632  63.7622547 110.5820868 106.3468218  63.8207626
 111.6148779 105.8604590  62.8268909  47.7943850  17.7588987  42.3460293
  46.9325590  17.5913048  42.7273464  47.7883863  17.2765791  41.5192509
  43.7768412  40.6781149  59.9967575  44.6570015  41.0396862  59.8927784
  43.3232832  41.3089085  60.5558777  74.2450523  32.2979522  41.1907578
  73.8080359  31.4785695  40.9586763  74.7238922  32.5463295  40.4000282
  86.2158012  39.7811079  25.4872346  87.0944309  39.9953127  25.8008742
  85.6297588  40.2750206  26.0606742 106.8705889  76.5436285  90.9417218
 107.2108266  76.2684053  90.0904152 107.5498387  76.2870687  91.5654434
  87.4139500  19.5639169  41.7647648  88.1478024  19.6366549  42.3750067
  87.8251457  19.4848359  40.9040117  68.5661125  25.0928760  11.3973045
  68.3647537  26.0208344  11.2765622  67.9085493  24.6349978  10.8736753
  97.3445702  33.2936049  45.0330830  96.5754318  33.2662225  44.4639397
  97.8960133  32.5743008  44.7252846  68.3046103  27.6973867  42.0465660
  68.5351706  27.4201751  42.9332590  68.7977362  27.1082664  41.4756060
  25.4728460  25.8982110  64.9754906  25.4283428  26.2939930  65.8458948
  26.3884473  25.6367469  64.8777962  47.6474047  24.0481472  52.4916506
  47.7533722  24.4922256  53.3329582  47.0354748  24.6002102  52.0048237
  18.0821609  24.0138578  25.7488251  18.3683586  24.7210717  25.1707506
  18.8358259  23.8474631  26.3149834 103.3727455  17.2500253  45.4940891
 104.0591431  17.7419615  45.0434208 103.7924576  16.9298589  46.2925673
 109.9825954  17.2606814  45.4527473 109.4315147  16.8797791  44.7690392
 109.7060490  18.1757843  45.5011463  68.4967136   6.3777196  56.1345148
  69.1704512   6.7317092  55.5539894  68.3719826   7.0560163  56.7982817
  64.1689014  24.5589685  34.8591876  64.9503088  24.0647531  35.1069546
  64.2359209  25.3763103  35.3528404  30.2158070  11.1683309  49.5047712
  29.6293807  10.5787158  49.0307570  30.2663445  11.9496214  48.9540768
  48.4181738  47.6012325   3.6764473  48.4618807  48.1025219   4.4907129
  47.8167772  46.8821096   3.8698912  43.6553574  20.6833887  33.5618043
  43.5206509  19.7395146  33.6465836  44.4101667  20.8687401  34.1205001
  56.2424850  44.4256783  15.7921398  56.4046431  45.2847099  16.1820138
  55.3305101  44.4618797  15.5036533  36.6212702  19.4215608  69.2928934
  36.2885094  19.2979801  70.1818419  35.9969449  20.0214052  68.8846779
  63.6684322   9.8667228  19.3561435  62.8468418   9.9999607  18.8834226
  64.1036606  10.7186794  19.3248248  64.3567848  22.8300357  28.9975524
  63.6286306  22.7347445  28.3835959  65.1296329  22.9211974  28.4402156
  36.2251878   2.4894015  44.8968983  36.2986207   2.3106305  45.8343840
  37.0286465   2.9621041  44.6795511  52.6031733  19.0990174  49.0671492
  52.3712492  19.8425221  48.5106897  52.5720406  19.4477141  49.9580288
  59.9484444  17.1691620  49.5355034  60.7681227  17.5967026  49.7836304
  59.3702364  17.8886187  49.2819548  63.0324650   9.4768214  30.3449225
  63.6322212   8.7973821  30.0368857  62.9816294  10.0985324  29.6188903
  62.9816818  35.6271362  43.9544058  62.4875641  34.9500346  44.4165897
  62.3165274  36.1310482  43.4854937  18.7502145 102.7022169  29.9633002
  19.4472121 102.6859296  29.3074369  19.2090844 102.6509861  30.8017778
  15.5432939  94.6346903  59.3059254  15.6720447  94.3396688  58.4044743
  16.4200448  94.6214676  59.6898031  55.7243156  28.5380125  86.9489479
  56.4036036  29.2103028  87.0021439  54.9327230  29.0163445  86.7023563
  63.4705257  12.1916735  56.9075489  63.1142044  12.2643566  56.0221148
  64.4033051  12.0209813  56.7770910  67.9557037  13.4588349  38.9841986
  68.6932611  13.3379710  39.5822239  67.9909039  12.6985133  38.4037638
  61.2541723  31.1104059  21.8858838  60.6559896  30.5158377  21.4332247
  60.9937954  31.0578418  22.8054881  86.2636944  74.7668140  90.1539967
  86.4596364  73.8429206  90.3097368  87.1120593  75.1605599  89.9503503
 108.6094186 105.2847881  41.3871670 109.0534232 104.4369993  41.3685369
 108.0439708 105.2421304  42.1583223  89.0512657  23.7865329  63.9276981
  88.1809425  24.1443753  64.1029549  89.3148899  24.1916537  63.1014967
  69.7827578  19.7535455  30.5116773  69.6471214  19.1044736  31.2019968
  69.1440487  20.4410315  30.7004809  84.9376297   5.8556628  36.9080997
  85.1128674   5.4695082  37.7662396  85.8048153   6.0129797  36.5346408
  11.5458297  84.7096801  34.2379642  10.9792995  84.0293408  34.6018553
  11.6163444  85.3611446  34.9357104  63.0400944  27.4305558  69.1876602
  63.6171389  26.9462848  68.5971212  63.6165428  27.7374601  69.8874807
  57.6329899  30.3748679  54.7181559  58.3712053  30.6216455  55.2752686
  57.3245907  29.5452976  55.0827599  26.3097978  31.3964248  70.5063486
  26.4019227  30.9703350  69.6541786  26.7016029  32.2613287  70.3852797
  72.7036095   0.3761145  33.7286806  71.9466925  -0.2078526  33.7765145
  72.3289824   1.2565318  33.7561369   8.8583755  98.7754483  70.6454802
   8.3199834  98.8007039  71.4365053   9.7592496  98.8008005  70.9679985
  92.2038364  21.7023230  79.2569113  91.8165493  21.4066148  78.4330177
  92.1653938  20.9354734  79.8284817  50.6494761  22.8655052  52.8763151
  49.8138428  23.3014846  52.7093744  51.3099766  23.4940124  52.5848532
  64.2561007  12.6157081  19.6672475  63.5003519  12.8936779  19.1497493
  64.6166945  13.4289837  20.0204992  41.3765954 104.0729619  58.5618830
  40.6242179 104.0140680  57.9730749  42.1377181 104.0020180  57.9857826
  67.7047682  15.1956868  18.6006272  68.4934235  14.8174989  18.2117474
  68.0288410  15.8984435  19.1639590  89.3687007  79.0922254  82.8584689
  90.1882264  79.1209691  82.3647273  88.7922522  79.7048181  82.4016619
  55.5872345  26.4826179  26.7836094  55.1438904  26.9771743  27.4728799
  55.5274868  25.5703282  27.0671391  50.9201002  29.2646217  83.2323074
  51.7258501  29.7147918  83.4859753  51.0647011  29.0100574  82.3209858
  82.4928284  11.9269097  27.1655297  83.3877277  11.6158700  27.0289826
  82.0894432  11.2596631  27.7207780  46.6032600  10.6144714  56.7172289
  46.5738869  10.1027966  57.5256586  46.7017126  11.5202928  57.0105362
  96.3573647  15.2453816  20.4271412  96.2004089  14.3722546  20.7866478
  95.6553841  15.3712714  19.7887003  28.7729692  33.5261631  31.1653566
  28.2535553  33.2676935  31.9266939  28.1551456  33.9899540  30.6001806
  63.2709122  16.2498534  33.5734439  63.1280565  16.8669188  32.8557730
  62.4457407  15.7699943  33.6445594  56.0347271  42.3508644  39.1749835
  56.3784313  41.8067408  39.8835206  56.7752361  42.4640274  38.5791016
  62.7638292  10.4306543  47.1818924  63.6751699  10.1384759  47.1638155
  62.8182983  11.3769484  47.3152876  78.0923080  11.3722813  55.8874512
  77.7690125  12.1161437  56.3957644  78.1337404  11.6967916  54.9878931
   3.3396198  39.6720386  14.4939399   2.8126957  40.4511642  14.6715629
   4.2246296  40.0084257  14.3531060  42.0065928  22.4709487  51.7853117
  41.1685276  22.7534723  52.1514559  42.4217558  21.9757962  52.4914980
  76.4359951  31.0988808  42.3068571  75.5802774  31.2867641  41.9212675
  76.3589239  31.3913870  43.2150030  62.5843191  27.3234558  53.6374474
  61.8594027  26.8718052  53.2053185  62.7282906  28.1072783  53.1072330
  96.3162518  19.3595231  41.9511223  97.0992088  19.0287840  41.5108776
  95.6542492  18.6845005  41.8016577  80.6581020  21.1490512  72.3694086
  81.4066315  20.5623889  72.4778414  80.9754086  21.8364501  71.7837191
 109.0812492  49.7318649  16.6600382 108.2843304  50.1028490  16.2811828
 109.4251919  50.4263973  17.2217834  97.1587086  10.2968299  66.3338804
  97.3242855  10.7128274  65.4878521  97.4979496  10.9191144  66.9772387
  54.4890165  13.9614666  81.0041618  54.3359900  14.3886542  80.1613522
  53.6231184  13.6626434  81.2819386  32.2223186 102.5409723  23.5687304
  32.9767036 102.4242259  24.1462326  31.5523147 101.9603628  23.9295864
  51.3521957  26.4914417  45.5646658  52.1314812  26.9366241  45.8974743
  50.7186937  27.1941209  45.4192257  46.6328096 104.8231166  81.3622570
  45.8208226 105.0638351  81.8083191  46.8057298 103.9258469  81.6472721
  53.0414772  -0.0119351  43.1042433  52.4259138   0.7201791  43.0678701
  52.5993395  -0.6701995  43.6403704  87.3875904   7.3510724  54.3261576
  86.5956306   7.0240319  54.7528553  87.5728130   6.7091817  53.6406660
  42.5979996   6.2943715  65.9315252  42.0546055   6.3444984  65.1451206
  42.4388552   5.4160041  66.2770367  20.2020930  88.1921709  25.6100154
  19.9300336  89.1088760  25.5667973  20.6810521  88.1231607  26.4358902
  81.8735313  14.6166193  70.2824020  82.2632885  15.4400945  69.9887896
  81.0222054  14.8686898  70.6400919   1.6736554  97.6903314  37.5270152
   1.8436169  98.5597396  37.1644211   0.7918214  97.4729682  37.2247696
  35.7963132  98.5067654  16.1487186  34.8467254  98.3890874  16.1230218
  36.1264419  97.9439951  15.4483354  33.9275550 100.5350227  51.9423437
  34.3044137  99.9093629  52.5610209  34.6814489 100.8891142  51.4706469
  63.7749004  27.3619342  45.3074217  64.7109699  27.4562550  45.4837847
  63.7336874  26.9779110  44.4316006  84.5482254  38.6160326  32.3134780
  85.4942608  38.7071657  32.4271989  84.4474888  38.2341027  31.4415765
  46.6361284  34.2882943  70.3478003  47.5182009  34.3269157  69.9780798
  46.4293957  35.1962233  70.5695105  96.6684914  16.7800140  48.8674402
  95.9526253  16.7171741  49.4997597  96.4307308  16.1639714  48.1744814
  75.1117563  31.6005635  44.5701122  75.3695202  31.8145752  45.4667664
  74.4105768  32.2200656  44.3681335  37.9775476  89.8732627  69.9569654
  37.8519344  88.9314104  69.8413467  38.0515002  89.9905539  70.9040689
  10.1202464  27.6169276  55.6666613  10.3278649  27.4578404  56.5874338
   9.6232349  28.4349680  55.6710815  20.6642627  80.6752563   0.4393187
  20.6814431  79.8129726   0.0241037  21.2034749  81.2254501  -0.1288119
  87.8906441  46.0375261  27.4819613  88.1982422  45.9441757  28.3835721
  88.3961296  45.3917217  26.9883585   7.1325540 104.6278693   6.9233346
   6.2085485 104.8691242   6.9884706   7.6056956 105.4330843   7.1330893
  24.6322227  20.7406449  66.1233616  24.1201663  19.9489415  66.2883902
  25.5416155  20.4670477  66.2432766  44.9894476  20.0794435  54.7315454
  45.4396057  20.1491499  53.8896847  45.5545616  20.5491590  55.3449345
  89.9841213  22.5675964  54.1219664  90.7875347  22.2880220  53.6831236
  90.0047874  23.5233378  54.0733528  55.5203675 100.8094103  52.7486610
  54.5675420 100.8248151  52.8387928  55.8440732 101.2001712  53.5602951
  41.4581251  15.6704283  36.1671805  42.3323536  15.2806199  36.1697245
  41.1910105  15.6655037  37.0863414  72.9636431  13.5345721  26.5707231
  72.8064537  14.4662559  26.7239881  72.4260283  13.0899847  27.2261214
  30.8527255  19.8203301  15.5897307  31.0878181  20.4380798  14.8973799
  30.2407408  19.2141914  15.1722348  90.8132744   8.4748632  57.8995275
  91.7351055   8.4015739  57.6523495  90.3923321   7.7247435  57.4795771
  40.8836365  29.1590786  81.9306946  39.9378037  29.2527795  82.0440674
  41.1617517  28.6220074  82.6726055  35.2979182  89.6684206  39.0149641
  35.1438188  90.4769159  39.5036554  36.1398935  89.8074163  38.5813785
  75.9020376  29.9629641  52.8627491  76.6328382  30.2910471  53.3866978
  75.6264210  29.1630816  53.3104753  81.8534660  24.4834018  69.9017525
  82.4059391  24.5839548  69.1265774  82.0522499  25.2504849  70.4386854
  55.9440088  42.9288197  21.5218282  56.7624617  43.0069685  22.0119882
  55.8689737  41.9943810  21.3283706  67.5097132  40.1779222  44.8510408
  67.4285793  40.0885057  43.9014864  67.9556084  41.0157299  44.9754858
  54.5626450  19.8884130  66.1951637  54.1230774  19.7655225  65.3537893
  54.5903254  20.8377385  66.3145256  89.6761513  32.8194118  87.4571800
  90.1152325  32.9130602  86.6118050  88.7599659  32.6546431  87.2342587
  52.8538846 101.3935793  52.2683764  53.1630372 101.7361570  51.4297485
  51.9097757 101.5510172  52.2580290  84.0087223   6.4854586  52.4434853
  83.9204407   6.4667583  53.3964205  84.9134350   6.2181079  52.2814703
  68.0657434  38.5354614  34.1291308  68.6002636  37.8670788  34.5578361
  67.1911430  38.4165859  34.4994998  69.3052578   1.9197857  40.4373837
  68.8153696   1.8647654  39.6168876  69.6903706   1.0501295  40.5451822
  60.8397961  23.9418507  31.5640879  61.5278816  24.5866323  31.7284870
  60.1569366  24.1526461  32.2008777  80.5259800  34.1132283  36.6508818
  80.9867191  33.8068938  37.4319744  80.5570126  33.3705616  36.0477948
  93.1156921  27.6945162  45.6750298  93.0836678  26.9741416  45.0455284
  92.3993015  27.5130177  46.2833643  52.2261190  34.6878386  50.7670259
  52.8266287  35.2264762  50.2517653  51.4623499  34.5728564  50.2016306
  48.2156038  20.4834485  43.0278349  47.7638292  19.6509695  42.8895903
  48.6201382  20.3959823  43.8909292  77.5297832  21.8703198  46.4240122
  77.1011496  21.4005899  47.1394539  77.5185585  22.7871609  46.6987944
  74.2570925  66.3377380  16.4161289  74.4054890  66.5520954  17.3371398
  73.5056305  66.8741083  16.1634493  63.6118221  34.9976373  52.0952415
  63.9048338  34.0930343  52.2050953  63.6043596  35.3564239  52.9826212
  72.1866179  28.6318398  48.4085894  72.0373774  28.2736564  47.5335646
  72.4969387  29.5237947  48.2525539  84.0049267  12.7018297  76.4130926
  84.6619511  12.0181930  76.2819815  84.4185925  13.3190119  77.0165777
  59.0807390  41.1961174  52.4238014  59.2172050  40.3628302  52.8746223
  59.7019815  41.1791229  51.6957903  66.9615316  31.1171341  21.4210892
  67.9091263  31.1008096  21.5553641  66.7406702  30.2220869  21.1635113
  88.0925560  24.1130972  11.6513884  87.8435135  25.0162768  11.4552307
  87.7967548  23.9730573  12.5509000  84.9198341   3.7649709  79.8769140
  84.5292664   4.6387658  79.8637962  84.5125294   3.3318037  80.6270504
  19.1048980  17.3063409  45.9877729  19.4790614  17.7449620  45.2236748
  19.7960639  17.3456275  46.6488171  61.2302256  26.2750649  51.5611935
  60.3406191  26.0917878  51.8632650  61.1249065  26.5235281  50.6428242
  21.1522961  17.0607960  47.8297758  21.8846965  17.1683276  47.2229338
  21.5652871  16.9452143  48.6855268  95.7281303  37.0800877  40.5321741
  95.0227737  36.4573312  40.7078838  95.5957985  37.7788687  41.1728191
  84.9597740  11.0470545  29.5435286  85.0445271  11.3148403  28.6284661
  85.3666019  11.7574131  30.0396299  81.6967678  14.9646592  51.2303448
  80.8397102  14.5709765  51.3937330  81.4988899  15.8435428  50.9068632
  37.8425740  90.1070595  37.8448582  38.3615827  90.0647939  38.6480236
  38.0623435  89.3025601  37.3750567  87.2537708  23.7152481  52.5129366
  87.3879337  23.9309955  51.5900660  87.7522278  24.3793678  52.9890776
  72.9305458  27.0565486  63.3982944  72.9502821  26.2301183  63.8808441
  73.0561113  27.7283049  64.0685272  78.4181261  27.0607662  51.3296700
  78.6185551  27.9698706  51.1069822  77.4620533  27.0272374  51.3618088
  67.0807409  45.4673862  31.1851001  67.8297091  45.3549051  31.7704415
  66.3185120  45.4399300  31.7634535  63.1629515  22.1671176  42.7621746
  62.2582340  22.4758458  42.7130890  63.2153034  21.4734054  42.1047163
  70.4376745  37.2134686  19.5048440  70.5049610  36.4085984  20.0185466
  69.8554420  37.7757502  20.0158024  52.7172995  22.5430179  60.4697847
  52.7216959  22.1856833  61.3577700  53.2177734  23.3562374  60.5363703
  94.9270248  37.1591520  52.1265125  94.3021774  36.4400411  52.0333385
  94.4374180  37.8444505  52.5813580  67.9645872  41.7621899  35.0661469
  67.9402304  40.8735037  35.4209256  67.2312832  41.7950153  34.4518042
  52.4143744  44.3910313  36.0780454  52.1076012  44.4802427  36.9803572
  53.2641649  44.8315048  36.0693288  24.8906516  82.1243382  22.5134373
  24.2462777  82.5058914  23.1096172  25.3712081  81.4949060  23.0511284
  84.9156570  25.6357884  52.4934673  85.5161762  25.1822472  51.9019365
  84.5966530  24.9514914  53.0818558  93.5150814  29.5675015  51.2629700
  94.4664383  29.6661782  51.3006544  93.3503246  28.6955523  51.6218519
  61.0061455  43.8330984  43.5396004  61.4012957  43.6958075  42.6786470
  60.3246737  44.4881153  43.3886623  67.3793650  37.7653527  45.8983755
  68.2850456  37.7286100  46.2059927  67.2376299  38.6865711  45.6804228
 109.4132805  30.9102535   5.1702046 108.7162685  30.3104091   4.9045238
 110.1960087  30.5773950   4.7311479  60.5294371  50.0044966  23.4201527
  61.4820337  50.0895166  23.3807135  60.2222443  50.3637314  22.5877976
  32.3589754   4.1461137  29.9694514  32.5737882   5.0757998  30.0454116
  32.0266175   3.9056465  30.8342910 100.3742310  96.4634817  82.7234602
  99.5341679  96.9036596  82.8529823 100.2052256  95.5510347  82.9582119
  72.0796061  36.3021922  43.8664436  72.6720858  37.0283461  43.6717653
  72.0044613  35.8260727  43.0394650  90.1770922  51.3877889  91.2547252
  89.6202513  51.6321164  91.9939553  89.8995921  51.9662481  90.5443663
  38.0149889  11.3914633  76.5756750  38.6517119  10.8807874  77.0757008
  37.2137284  11.3526893  77.0978928  35.3303218  27.6968265  29.3002009
  35.6183434  27.2920251  30.1183748  35.6963110  28.5808396  29.3285275
  94.2475605  15.8588064  73.3778954  93.8709831  16.5691257  73.8973856
  94.9193001  15.4783213  73.9437771  82.2241497  36.5078974  20.3207803
  82.9127789  36.2821007  20.9461093  81.5240097  36.8776369  20.8586717
 101.4082909   7.8609288  50.0029516 102.1013927   7.5780720  49.4064379
 101.8545532   8.4156740  50.6427526  72.7411366  43.0214405  34.2785764
  73.0666637  43.8027477  34.7255874  72.0037985  42.7287626  34.8142123
  96.7461014  32.3327827  37.1679807  96.0179615  32.1971989  36.5616274
  96.7645168  31.5383434  37.7016068  58.1338120  50.6695223  87.2592545
  58.3343363  51.5644598  87.5333118  57.5534582  50.3341293  87.9425716
  50.5520535   7.3222417  55.5098772  51.1391163   7.4131501  54.7593260
  50.2177382   8.2063508  55.6609249   2.0834877  29.5459127  32.7257657
   2.4898483  30.1495981  32.1039438   2.8186561  29.0730309  33.1158113
  58.0082798  35.9534359  27.4688196  58.3888388  36.6995621  27.9321814
  58.2746744  35.1911211  27.9827666  96.5890121  47.7513742  14.4273388
  96.7479134  48.2015419  15.2569973  95.7663441  47.2813940  14.5635784
  60.2130556   0.2696995  62.2530174  59.7443724   1.0114449  61.8704176
  59.8847580   0.2161340  63.1505585   0.5465080  18.8550615  40.6895971
   0.4968883  18.5959816  41.6097307   1.3907196  18.5170364  40.3907824
  97.5117493  28.9718151  57.0315361  97.7679062  28.0695081  57.2224665
  96.6833496  28.8907051  56.5588856  43.6655569  21.9039917  70.9858608
  43.8925409  21.5282154  70.1352739  43.5274792  22.8342485  70.8075762
  75.2035713   0.5095433  57.8284740  74.3797207   0.7295837  57.3936367
  74.9481678  -0.0695473  58.5465670  94.3140602  31.6088247  35.7514715
  93.8724613  30.8093381  35.4650497  94.1617012  32.2337103  35.0425744
  39.1745710  30.6751680  24.5448613  38.6022234  30.4964972  25.2910042
  39.2417192  31.6296220  24.5176625  67.2585869  19.7870755  19.4678020
  67.4302483  19.6863997  18.5315180  68.0219984  20.2579808  19.8019946
  93.8788605  39.0340781  35.5296659  93.6688423  38.4278965  34.8192668
  94.8137951  38.9031339  35.6877184  79.8943090  34.2907977  44.3470478
  80.7039738  34.7981215  44.2895746  80.1829720  33.4013724  44.5515585
  59.0464589  83.7549871  88.6560747  59.9869940  83.8572114  88.5105631
  58.7644502  83.1413549  87.9777238  27.0315075  41.8598795  64.5429611
  26.2408781  42.3994112  64.5361471  27.5987768  42.2578955  63.8826418
  45.3352594  34.8872089  36.0950518  44.7810078  35.2282715  36.7969847
  45.9352779  34.2849064  36.5348697  75.3369522  14.9366486  64.5788765
  74.4220781  15.0195599  64.3098640  75.8321667  15.3593647  63.8772345
  52.3744630 102.8483722  29.9260378  52.2307824 103.7946565  29.9375224
  51.7493486 102.5190142  29.2802978  23.0852369  10.0667936  11.2157261
  23.6767629  10.7708866  10.9500420  23.6245349   9.2765695  11.1851418
  65.3664160  31.6376448  47.7060747  64.8169756  32.0329881  48.3828688
  65.1014853  30.7179880  47.6894665  92.9294968  26.0998297  43.4032488
  92.7400208  25.2190471  43.0799007  93.6086273  26.4299750  42.8150129
  72.3029470  32.5617766  46.1641264  72.5615883  32.7207994  45.2563572
  71.3519430  32.4592805  46.1277676  85.4149532  32.6894093  50.7534742
  85.4061604  33.6230111  50.5424261  84.5074177  32.4865961  50.9803772
  65.8079529  13.0068719  36.6388464  66.5519857  13.0188131  36.0367608
  65.4927063  13.9106238  36.6479778  65.6391478  14.9236071  33.6745644
  66.0763121  15.4750490  34.3234324  64.7273445  15.2145779  33.6882687
  69.2636156  38.8517237  31.6593933  68.5799885  39.3218994  31.1820912
  68.9390278  38.8050747  32.5586700 105.2226830   3.0133876  50.1470423
 104.5160961   3.0880222  50.7884359 104.8371506   3.3258250  49.3285227
  60.1473951   7.1138620  63.6030483  60.7151508   7.8145069  63.9239550
  60.7155991   6.3446027  63.5628891 107.6301956  10.7720661  17.5419378
 107.8117371   9.8722130  17.8131211 108.3674431  11.2783718  17.8830278
  77.5097322  16.2136662  43.9967680  78.2937813  16.7035711  44.2447519
  77.4853754  15.4760957  44.6063805  35.4422187  94.7461427  38.8418627
  36.2204932  94.1889358  38.8353109  35.2082347  94.8198927  39.7670889
  63.6297178  28.2526016  25.4530478  63.5434914  29.0112638  24.8757887
  63.6663246  27.5027466  24.8592377  73.7556696  21.6164112  39.2669153
  74.0973139  22.1620345  38.5585356  74.4088793  20.9248042  39.3728876
  76.5930176  33.0149126  24.7388077  76.5575361  33.4385204  25.5964351
  77.3747206  33.3794808  24.3237567  45.4611015  27.2715378  32.5099206
  45.6304598  28.1835699  32.2738075  45.5294418  26.7935109  31.6834497
  69.3207693  25.1372647  28.6193419  69.4728947  25.9938526  29.0185237
  69.3977213  25.2944994  27.6782846  81.9666386  27.2473240  37.5670266
  81.7416477  26.4062929  37.1691823  82.6373291  27.0336580  38.2156754
  33.6494302   2.1300046  81.4198053  33.9544152   2.0943420  82.3264170
  34.1762160   2.8202026  81.0168672 108.2273246  83.7907488  11.6224491
 107.8749753  84.5808609  11.2127983 108.2449723  83.1431301  10.9178078
  95.0190544  46.9462538  31.8851519  94.7640133  47.6508999  32.4806857
  94.5133972  47.1105814  31.0892010  69.6814251  58.0940962  54.7932863
  70.4692793  57.8650236  55.2862835  68.9780951  57.6120710  55.2282667
 106.5785313  62.5541401  63.8352299 105.6749916  62.8248119  63.6721468
 106.5038395  61.6621447  64.1743469  82.3550701  86.1886978  44.7220993
  82.9053497  86.9554138  44.8820019  82.0401287  86.3027287  43.8254166
  92.3833942  69.6174622  38.9129162  92.5524902  70.2847099  39.5780611
  93.1374645  69.6683121  38.3255243  98.5961628  55.9277344  43.8669825
  97.8231239  56.4213896  44.1407585  98.6226177  56.0322380  42.9158688
  87.2407818  42.5804758  60.0087452  87.8857327  42.1752262  59.4290590
  86.6452503  41.8676615  60.2399683  46.2835931  10.3056352  81.9072450
  45.7796239  10.9550779  81.4168632  45.8222913   9.4806306  81.7562449
  90.4413891  87.0921421  26.8741560  90.0573063  86.7821693  26.0540104
  90.5193520  88.0392075  26.7592406  78.2147408  62.0760965  24.8464823
  78.6935902  61.3876534  25.3079772  77.4771833  61.6225386  24.4383955
  85.7752419  48.8640976   4.5514414  85.5503368  48.0761862   5.0462592
  86.0962009  49.4781828   5.2118284  69.9919748  40.9392118  25.3199625
  70.2449656  41.1891079  24.4312692  70.5959654  41.4207220  25.8852768
  87.7531242  75.9520197  78.1420994  88.3535194  76.4355803  78.7094831
  87.5350380  76.5686846  77.4432468  99.4082737  48.9529181  43.9042759
  99.6445656  48.9926815  42.9775524  98.7317085  49.6220684  44.0078688
 109.8565006  87.3048973  74.6836948 109.8499680  87.5995350  73.7729931
 108.9742756  87.4943733  75.0030756  97.4817944  71.1974144  61.3893747
  97.9370975  70.4334307  61.0354662  97.6908779  71.1894226  62.3234224
  69.0738630  49.4111729  36.5570354  69.7638750  49.0633297  35.9921288
  68.3559990  48.7836838  36.4723992  53.1325340  35.7720757  35.1669645
  53.7752771  35.1518774  34.8227739  52.8861761  35.4132891  36.0194969
  72.5222254  77.2615099  64.0592813  71.7413950  77.2096825  63.5080528
  72.4907351  76.4684629  64.5943642  77.4995041  86.8451118  49.3015051
  77.3335028  87.4512482  50.0234938  77.4183130  87.3828793  48.5138226
  76.2171507  57.9781866  52.4732733  75.7101107  57.7395868  53.2492924
  76.0679579  57.2591639  51.8592834  62.5302744  80.9705639  45.6606340
  62.9584885  81.8176079  45.7846212  62.2961760  80.9540844  44.7326469
  95.0981808  23.7485337  60.7191753  95.6104183  24.3835497  61.2197828
  94.1929722  24.0461755  60.8098888  84.7309971  53.5606384  35.3188443
  84.0986538  52.9878330  34.8849440  85.4568195  53.6294317  34.6986222
 100.7771015  61.8832636  49.6911097 100.3718758  61.2038231  49.1522360
 101.2480164  62.4351025  49.0666533  71.4863825  25.1746726  69.1026545
  70.8630657  24.7442651  69.6878529  72.0045996  25.7381320  69.6772814
  87.9886341  50.8059311  19.6308887  87.5722980  51.4342928  19.0409219
  87.2652626  50.2755594  19.9650764  84.5443439  74.0889788  46.9405031
  84.7311687  74.3640184  47.8381014  83.9752007  74.7757244  46.5931129
  85.7487583  31.5132737  43.7735796  84.9205208  31.9744349  43.9061975
  86.3245010  31.8531680  44.4585752  83.0763912  80.2282429  66.4660835
  83.7173653  79.5210648  66.5387201  82.3869038  79.9911880  67.0862865
  74.0003252  63.0747080  60.3457117  73.2115793  62.5528479  60.1981640
  73.9985180  63.7173319  59.6363020  89.0179443  73.9961815  42.2257471
  88.7988186  74.9012041  42.0040464  88.9013672  73.5140896  41.4070749
 107.0538044  72.4285507  54.3852234 107.0167446  71.9346952  55.2043438
 106.3766193  72.0331430  53.8363028 104.5453739  72.1484470  20.6592345
 104.9608994  72.9900312  20.4713273 105.0106812  71.5224171  20.1044345
  76.2994099  68.5901642  63.0493975  76.4653015  69.2374039  63.7348175
  77.1526146  68.1869125  62.8892040  29.7201350   4.6898651  65.2158642
  30.2161124   3.8998413  65.0011539  30.3161623   5.2070045  65.7576704
  79.3896389  67.8976297  46.0487175  78.6121368  68.1958389  45.5767059
  79.7931337  68.7010098  46.3773489 112.4543667  57.2806454  33.3854055
 112.8290462  58.1561565  33.2888079 113.0653572  56.8208408  33.9611721
   0.5596210  54.2017937  64.8001766  -0.3354786  53.8755274  64.7076130
   0.7197334  54.1974974  65.7438803  75.6981611  58.8637400  38.1328702
  75.4399538  59.7833490  38.1951594  74.9058819  58.4116220  37.8428507
 105.7466888  57.3105240  71.7963791 106.2496567  57.4655008  70.9968567
 105.1944160  58.0871534  71.8862391  89.4135284  70.7764578  34.3808985
  89.7249031  71.1064768  35.2237272  88.4715366  70.6583786  34.5031333
  69.5726204  56.2314558  32.0097208  70.1902246  56.4177561  32.7168894
  70.1177406  56.1717367  31.2251782 102.2148800  68.1009197  47.4094534
 101.3225460  68.4472895  47.4128199 102.1645641  67.3042727  47.9377031
 102.6905060  96.8395615  50.1846123 103.2833004  96.2465668  50.6463194
 101.9694328  96.2803173  49.8955965  78.6905956  78.5706425  25.9247589
  78.0596924  79.2293358  26.2151361  79.4027948  78.6237860  26.5620828
  67.9975843  80.0531292  39.2724466  67.2078705  79.6547031  39.6382761
  68.6956310  79.4299269  39.4738984  86.2893295  33.4241176  53.7938452
  85.6424904  32.7530742  53.5758209  85.7793522  34.2296600  53.8790512
 109.1619778  48.3933687  43.6181259 109.3925667  49.1561604  44.1484118
 109.9716949  48.1656551  43.1612492  99.7440910  94.7525692  45.0048256
 100.6272602  95.1110935  45.0926208  99.4942093  94.9497128  44.1020966
  47.8743744  62.9337788  59.1919851  48.1230593  63.1915379  58.3043194
  48.4073591  63.4892321  59.7608662  71.2452126  39.0114141  59.6264219
  71.4274120  38.0979133  59.4060707  71.6353989  39.5128918  58.9105225
  71.2283039  66.9975233  65.2575827  70.5107498  66.9358683  65.8880949
  72.0079470  66.7559814  65.7576275  60.5897999  75.0303745  34.1468668
  60.8239555  75.2608299  33.2478166  59.8590326  75.6106091  34.3602729
 112.9042816  50.2241755  40.8641481 113.3832264  50.3791904  41.6782761
 112.4861336  51.0627747  40.6688690  29.0561725  54.4120026  54.6465397
  28.1431343  54.2419720  54.8782206  29.0102626  55.0943851  53.9768553
  92.6677036 104.7219467  53.4160328  92.2187805 103.9436626  53.0859232
  92.9050446 104.4979477  54.3158817  53.9862536  80.9553712  88.6384413
  54.6548556  81.3239830  89.2157817  53.7351702  80.1322835  89.0576277
  91.4925671  81.0632324  43.4677458  90.8569813  80.5486870  43.9652395
  91.2343407  81.9726753  43.6176300  12.2802497  52.4369049  38.8941431
  12.6356460  51.5683842  39.0828061  12.7861549  53.0288172  39.4508696
  68.4331036  63.8940382  52.2332382  67.8870726  64.4094944  52.8268623
  68.9320517  64.5454502  51.7403507 100.6866360  54.7267532  59.4808435
 100.9757710  53.8417482  59.2585945 100.2218819  55.0298405  58.7008619
   7.8799106  46.5013599  40.4548597   8.7679245  46.1747074  40.3100920
   7.5915100  46.8012381  39.5928097  96.7714024  48.9587545  80.4725933
  97.2665501  48.8430595  79.6616220  97.3085785  48.5372448  81.1434078
  75.0321007  76.5535975  62.5375462  74.1146755  76.8258953  62.5171757
  75.2298498  76.3102531  61.6331625  70.7316542  61.9757557  56.1305952
  70.7776928  61.2016869  56.6917801  71.6379547  62.1344995  55.8666754
   1.1155368  81.8136120  20.8689213   0.5594303  82.3591328  20.3126931
   0.9345295  82.1162033  21.7588139  76.7089367  33.6052012  76.1503553
  76.1809111  32.9876423  75.6443501  76.5121222  33.3964729  77.0635557
   2.1935894  57.8167439  70.4881001   2.9592373  57.2424173  70.5004311
   1.5016510  57.2850323  70.0947285  92.7861404  43.2384586  44.9429512
  92.5022411  43.6825991  45.7419300  92.7488041  43.9148855  44.2667198
  27.8126098  58.1447458  58.7332249  27.5655223  57.2858572  58.3904743
  28.7678768  58.1155491  58.7866068 102.4582195  81.3891029  13.4151661
 101.7507362  80.9307098  12.9617584 102.6881504  80.8131599  14.1443062
  99.6114254  64.0150595  41.4459562 100.4747963  64.4251442  41.3944578
  99.4533253  63.9066267  42.3837614  87.6236343  58.3426094  31.0888481
  88.2199860  58.7519264  30.4619098  87.6672173  57.4081850  30.8859229
 104.9252987  38.5515237  32.6034284 105.4901409  38.5897684  31.8316007
 105.1079845  39.3645382  33.0744481 107.4100113  63.3926249  31.2505460
 106.9810200  62.6442957  31.6655183 107.3013020  63.2407141  30.3117514
 100.0274563  93.9455986  70.5799103 100.5691624  94.7310352  70.6564903
  99.9179840  93.8211250  69.6371746  82.2180557  67.3542070  37.3696923
  81.6588783  68.0875444  37.1132374  81.8362999  67.0366621  38.1880188
  84.5692444  73.8363791  43.0824614  83.8903618  74.0891314  42.4567842
  85.1364803  73.2407856  42.5928211  69.0299988  54.5485210  65.3767300
  68.3098841  54.6329784  64.7518015  69.3780088  53.6700296  65.2238560
  92.7136612  54.8478270  41.3682461  93.1750584  55.5327511  41.8522072
  91.7866993  55.0592852  41.4790154  92.5788975  70.8878613  42.0163488
  92.3694801  71.7184210  42.4436045  93.2648563  70.5038643  42.5624657
  79.5723963  70.5545712  23.8516450  79.4010210  69.9138689  23.1614566
  79.0845203  70.2283335  24.6078062   5.1276828  79.1272259  77.3953772
   6.0330059  79.1581106  77.0860767   5.1785423  79.3969440  78.3123827
  71.3793182  69.6908712  63.4543419  71.9814062  69.3140554  64.0960026
  71.5116167  69.1661644  62.6647758  97.7553940 103.9206409  22.2742248
  98.6284161 104.0940189  21.9220781  97.6555824 104.5505905  22.9879761
  86.1423111  74.9480247   2.1498530  86.9976139  75.0162601   1.7255427
  86.0145283  74.0085697   2.2814946  64.1369247  70.0392008  40.8171701
  63.9835024  69.1581297  41.1583519  64.8344851  70.3918839  41.3696718
  79.0582037  69.4303131  41.2205029  78.3840513  68.7661839  41.3643312
  79.1823006  69.8354292  42.0788193  77.3791647  68.3364534  71.8040514
  76.7710161  68.5583353  72.5091457  77.9766226  67.6988459  72.1948624
  98.4569359  64.6239662  63.1856728  97.7698040  64.6369171  62.5194120
  98.8872623  63.7768745  63.0695057  78.4740019  67.1895838  62.6417303
  78.7013483  66.2977791  62.3786163  79.2526674  67.5110722  63.0962181
  83.1637383  64.3649960  59.6580601  82.5933266  64.0988636  58.9369202
  83.8901997  63.7422895  59.6311617  70.9242630  90.8172417  30.5760407
  70.5482435  90.5998516  31.4290261  70.5058050  91.6431999  30.3332973
  86.0463905  61.1802578  35.0446677  86.8137169  61.6320419  35.3958511
  86.2332249  60.2511168  35.1789379  91.2543488  60.2428770  74.1508102
  90.9605789  60.6832170  73.3532906  90.4895496  59.7497892  74.4477463
  82.3751831  70.0807095  63.8405609  81.8126011  69.3385649  64.0618038
  82.7905846  70.3215790  64.6686029  87.2538471  68.2660437  57.2606897
  88.1400394  68.2742500  57.6223850  86.7693901  68.8914156  57.7996206
  58.8298798  65.4015303  52.1091461  58.7843800  66.0333061  52.8268003
  57.9646826  64.9923038  52.0950890  91.1734486  88.1855202   3.4386882
  91.2646770  87.9687500   2.5108320  92.0305061  88.5301208   3.6895412
  32.8457453   1.6369056  10.6156600  33.2758906   1.5691089   9.7632474
  33.5121348   2.0125865  11.1910093  95.2446651  50.8537340  46.9844580
  95.4964066  51.7459011  46.7459440  94.5618916  50.9662294  47.6458120
 100.4192308  20.4610664   2.8963577  99.6548036  20.7174761   3.4122479
 100.6651262  21.2550718   2.4216854  23.0740406 100.9538269  18.8748622
  23.3347561 100.3701878  18.1623840  23.8400604 101.5084553  19.0226150
 100.6236076  60.3350782  58.1860733 101.2128448  59.5808172  58.1971979
  99.9553108  60.1265812  58.8388634  87.6055241  63.7564611  38.4946585
  86.9345856  64.4382763  38.5292578  88.2629299  64.0347672  39.1323090
   0.7675125  93.9071941  40.1890326  -0.0613640  94.2606163  40.5119753
   0.6287815  93.7921429  39.2489529  99.8589897  27.9103112  33.0250859
  99.5251656  27.8223109  32.1323109  99.3106937  28.5882401  33.4200764
  88.2560825  62.0630836  36.5785956  88.6880684  61.3563204  37.0582938
  87.9473877  62.6608992  37.2594476  84.5223141  61.2414455  57.6731491
  85.3530216  61.1962891  58.1465673  84.6113873  60.5969000  56.9711065
 103.4971905  43.7871361  45.6492138 103.7733841  42.9935265  45.1908207
 104.0572357  43.8230419  46.4246416  71.3473225  91.8713665  58.2091236
  71.6893005  92.7116680  58.5143661  71.7120123  91.7694569  57.3300076
  10.9877826  60.0017214  51.2669230  11.1957981  59.6782017  50.3903961
  11.8213512  59.9737501  51.7366171 100.3753471  86.2255573  49.1376400
 100.5792332  87.0812416  48.7601995 101.0867500  85.6576061  48.8417482
   6.0132076  35.4986024  31.3141227   5.7967044  35.2157998  32.2025943
   5.2346469  35.9689665  31.0160804 100.0181293  42.5283480  67.0555544
  99.2550278  42.5962639  66.4817190  99.7390938  42.9376793  67.8745937
   9.2994072  91.4588547  39.5323706   8.7052108  91.8369293  40.1806164
  10.1719810  91.5843487  39.9053335  74.3892908  89.1939354  50.7464504
  73.8366985  88.6631870  51.3201904  74.8537540  89.7839832  51.3400459
 105.1605892  33.2240534   9.6174967 104.5682335  32.4987769   9.8157692
 104.6301365  34.0096879   9.7502398  67.6337528 105.8708191  45.2355289
  67.6311922 106.4999580  45.9569168  68.4273291 105.3532600  45.3719187
  71.2927341  70.3356838  16.0752261  71.5905809  70.7013226  15.2422643
  70.3515959  70.2068186  15.9573662  82.9611206  83.4758282  59.3784618
  82.9821014  82.7718544  60.0266933  83.1063175  83.0349827  58.5413265
  82.4534130  56.7036533  60.9780025  83.2650375  56.5557337  60.4926014
  82.1568203  55.8267736  61.2216187 107.2403812  53.6603832  57.6936722
 107.8231144  54.3391895  58.0340719 107.4469948  53.6133575  56.7602253
  74.2199039  57.9211950  34.4282341  75.0364208  58.3924246  34.2624640
  73.5434818  58.4644938  34.0238690  76.5082407  67.5234509  41.4793539
  75.8804798  67.5534248  42.2013330  76.5128231  66.6067696  41.2038517
  92.0745564  58.3362007  33.7371612  91.6925049  57.8976107  34.4973636
  91.4817333  59.0662718  33.5588574   9.2075111  70.6307888  41.8814898
   8.3604194  70.8921003  42.2425747   9.0009739  70.2822542  41.0142565
  72.7299309  58.7267256  59.8122454  73.1726837  59.1717911  60.5348206
  73.4400082  58.4253407  59.2455101  97.8805161  69.2985868  72.1001530
  97.9334354  69.3931198  73.0512047  97.5699711  70.1498747  71.7917585
  90.7343578  95.3881741  16.3476074  90.4288960  96.2674141  16.5709126
  90.7094479  95.3617001  15.3910983  75.5303001  60.6627655  53.1932878
  75.7859707  60.7080460  54.1145992  75.9125137  59.8435354  52.8786373
  85.8101177  56.4861250  42.4279547  85.6110191  56.8029642  41.5469313
  86.5022469  55.8376980  42.2985697  89.0352726  70.6719017  24.6538782
  88.7564182  71.4852142  25.0745916  89.7655964  70.3630590  25.1900482
 101.3086033  80.9255981  37.2703719 102.1722507  81.3383293  37.2720575
 100.9335613  81.1514378  38.1215906  71.5031910  52.2823238  33.4456921
  71.6697407  53.1118250  33.8933730  71.2179518  52.5368261  32.5681376
  75.0711441  58.6154890  43.8787842  75.8864641  58.1690550  43.6503506
  75.3356123  59.2943335  44.4996405   0.4151489  53.0483627  38.9705205
  -0.2477597  53.0551338  39.6609807   1.2481262  53.1134319  39.4375825
 106.6013527 102.4230576  39.6103120 107.0427990 102.8411293  40.3496122
 105.8813190 101.9329643  40.0072956  84.6722126  69.7328520  43.0350924
  85.4464149  69.6677017  42.4759912  84.9621487  69.4019032  43.8851786
  74.0033531  66.1599731  26.1489677  73.4725857  66.5007782  26.8689489
  74.4320202  66.9326019  25.7808304  13.3086349  50.5238152  85.7289982
  13.5898925  50.7686758  84.8474216  13.3484699  51.3394880  86.2283230
 110.6243420  64.7842979  56.3950920 110.3611469  64.2172766  55.6702137
 110.1963902  65.6207895  56.2124252  18.3540680  34.7696877  53.3622837
  18.9758541  35.4957628  53.4114981  17.6851322  35.0685453  52.7463007
  69.1817570  35.4709601   0.1755399  68.2798386  35.3647375  -0.1269417
  69.0984011  35.8673739   1.0428006  75.1218128  54.1601753  60.1286888
  74.3040419  53.7269735  60.3732586  75.1649666  54.9289608  60.6973124
  78.0291271  62.7979136  47.0149708  78.0963516  63.4974289  46.3650465
  78.5299778  63.1188107  47.7649069  10.2301742  57.9238176  40.0119257
  10.0604774  58.4799433  40.7722950  10.6797268  57.1585703  40.3704357
  91.9323349  64.0625143  63.7429094  91.8700886  64.4286108  64.6251392
  92.7317715  63.5362864  63.7578106 111.1275578  38.8761926  73.1373739
 111.8147373  39.4021535  73.5464954 111.4966869  37.9942608  73.0907965
  62.6516867  63.3819103  29.2696047  62.6599836  64.0246820  28.5603762
  63.4927940  62.9312515  29.1942692 103.7013340  46.6149092  46.7604780
 102.7769661  46.4952707  46.9783449 104.1387081  45.8564663  47.1473885
  68.6082220  67.4310398  41.5557432  69.3947458  67.1949100  42.0475340
  68.1496048  68.0523252  42.1213436  99.9582863  72.4373627  75.4081440
  99.3499565  71.8473291  74.9631357  99.7019005  73.3116293  75.1146173
   3.9370872  77.4098015  26.6971087   3.1954052  76.8395376  26.4947915
   4.4100715  77.4905157  25.8688545  77.4827957  60.2182293  62.5732756
  78.2598925  60.3988457  62.0443869  76.8541765  60.8915520  62.3130655
 105.2348232  70.3874111  79.0393496 105.9650612  70.6129932  78.4630680
 104.4766140  70.8187437  78.6452627  73.1184959  63.2487392  53.5460901
  73.2419300  62.9474115  54.4461966  74.0066195  63.3642721  53.2082748
  95.8910465  61.9777918  26.0860491  95.7817459  62.2734404  25.1822376
  96.3964844  61.1681414  26.0137391   6.7891647  54.8453283  79.9995708
   6.4198925  54.2273855  80.6304550   6.7036201  54.4044399  79.1542721
  82.9516125  79.3735933  16.6683531  83.1906700  79.2508602  15.7496464
  83.7719536  79.2552185  17.1471751  81.7682552  86.2490654  54.9130821
  82.4790192  86.5816212  55.4612112  82.1901035  85.6164837  54.3315935
  91.8841076  23.7886930  42.2891188  92.3813915  23.0284977  42.5908566
  91.1638832  23.4169984  41.7798471   0.9082653  69.8554611  72.1032953
   0.3838016  69.4637680  72.8016853   1.7790367  69.4740200  72.2150135
 103.5302448  54.2728758  53.7165451 102.6910973  53.9046431  53.4400129
 103.9659214  54.5160770  52.8996754  89.4180012  83.4998417  45.6436205
  89.1141224  83.9442635  46.4350653  88.9703751  82.6538658  45.6571293
  37.2685718  35.2935903  90.2057879  38.1766700  35.5927007  90.1597949
  37.3343133  34.3520086  90.3649932  92.4100685  67.6453686  16.1322534
  93.2633305  67.2346735  16.2719369  92.6158237  68.5465765  15.8838248
   1.4625789  55.9686899  56.3481236   2.2957374  55.6172276  56.6620541
   1.2749626  55.4674101  55.5545521 102.4495411  58.7459421  42.3144436
 103.3439636  58.9291525  42.6019573 102.3506737  57.8005457  42.4270535
  86.9657993  46.8381882  86.6186428  86.9096947  46.3751698  85.7827568
  87.1670437  46.1548042  87.2579479  91.9133663  77.4952841  47.8083897
  92.3982334  76.6746235  47.8958464  91.6934395  77.7404881  48.7071371
  71.9279528  50.6581545  30.3722191  71.1848450  51.2578392  30.4385209
  72.5669956  51.1270618  29.8355842 103.2736969  51.5681839  44.8316956
 102.5420952  52.0915890  44.5045376 102.9239178  51.1240816  45.6041384
   7.7877285  94.4160461  52.2608137   6.8576576  94.2902946  52.0726538
   8.0608894  95.1124382  51.6636133  89.5420551  51.7544031   9.9259257
  89.5256615  51.8374825   8.9724791  90.1671410  52.4197865  10.2136099
  15.8017971  53.9158487  45.5371857  15.0443031  54.1008949  44.9820328
  16.1931182  54.7736835  45.7021379 101.1527252  48.1268978  53.6330175
 100.5696011  47.3856020  53.7963629 101.0763264  48.6692429  54.4180346
  81.8790817  56.0195875  50.4940987  82.7026844  55.7070065  50.1196623
  81.3077450  56.1535120  49.7378778  89.2376137  74.4761181  60.3685617
  88.7550926  75.1481533  60.8499956  90.1562309  74.7292757  60.4596519
  70.6444597  64.8887539  53.7056208  71.4137602  64.3191910  53.7084723
  69.9018288  64.2879057  53.6446667  96.0604382  39.8620629  55.2934980
  95.7155991  39.3869019  54.5374966  96.9825745  40.0095892  55.0834131
   1.4613105  61.5130854  42.7543020   2.1569110  60.9574890  43.1059980
   1.5705253  61.4613914  41.8047619   1.1127998  66.6988993  44.1447449
   1.1008026  65.8349705  43.7327814   0.8366348  66.5378714  45.0469828
  77.9646444  97.4148178  48.3510256  77.9591370  98.3132362  48.0208015
  78.5378265  97.4447155  49.1170549  80.2059650  58.0849695  61.6615582
  79.9202776  57.7713013  62.5195932  81.0196018  57.6102257  61.4917183
  14.0746357  73.0862045  42.5577545  13.2065059  72.6973772  42.6645088
  14.4903995  72.9825592  43.4136915  81.4092350  72.6769018  53.6507893
  80.7981300  73.4103346  53.5811377  82.2144890  73.0675077  53.9902449
 107.4009228  58.6306953  39.2286682 108.3272362  58.4045124  39.3124652
 107.1290588  58.2257748  38.4050441   0.8282806  78.2282639  27.4795556
   1.4396431  78.9640665  27.5120234   1.2409069  77.5999880  26.8869019
   1.0369064  45.9506369  62.6735735   0.9742500  45.1994419  63.2635021
   1.9756939  46.1251688  62.6068878  96.0214138  48.7520409  55.1198339
  96.1670208  49.2271376  54.3017197  96.8430614  48.2864761  55.2759409
  82.6958179  51.7288256  28.3317733  82.6953602  50.8144236  28.0487466
  81.9113350  52.1038246  27.9315352  91.0717106  30.1972747  55.1544571
  91.7432880  30.7569814  54.7646570  90.5686951  30.7843161  55.7188940
 102.8856373  70.7765436  38.1760049 102.8118038  71.0524178  37.2624016
 102.1375942  70.1949787  38.3117890  98.3459949  81.3240337  72.2983027
  98.3789444  82.2774029  72.3772001  97.8559208  81.1672974  71.4911461
  89.3328190  85.2735043  25.1525211  88.4594536  85.5443668  24.8695302
  89.3586636  84.3320179  24.9817538 105.0520706  83.4387589  48.5298681
 104.9740219  83.1651211  47.6159382 105.9825325  83.6327457  48.6431837
  17.9542686  65.1004362  53.4001160  17.9483844  64.3131638  52.8556919
  17.9054596  64.7713423  54.2976379  99.6310711  61.8619061  85.6420898
 100.0899315  62.4023676  86.2851906  98.8880539  61.4968157  86.1225796
  72.0961094  59.9142885  34.1514754  72.2198105  60.0939369  35.0834942
  72.0120001  60.7791281  33.7499595  85.0929165  60.0360966  54.7628784
  85.6231594  59.3651009  54.3329430  85.6075001  60.8387423  54.6780729
   2.0347072  60.4005909  25.9860277   1.3545372  60.0109720  25.4366684
   2.1066619  59.8081684  26.7344189  48.0659628  81.8062305  40.7662439
  47.9617214  81.9909668  41.6996479  48.5455942  82.5609684  40.4248238
  95.9909153  51.4588165  56.2123013  95.8806896  50.5198765  56.0623837
  95.1576996  51.7404985  56.5899754   2.8181697  91.7501163  44.0834808
   3.4446384  92.4160385  44.3668842   2.9826976  91.6501045  43.1458426
  92.1804142  62.8886175  48.2250118  92.6713371  62.9107046  49.0464401
  92.3815727  62.0317745  47.8487349  19.7223426  69.1796827  49.6682501
  19.9440910  70.0804186  49.4321728  19.1782810  69.2643070  50.4512358
  71.8577003  64.2900515  48.5259485  72.6043510  64.5148659  49.0811062
  72.2484589  64.0401697  47.6886320 110.5431461  45.6768560  44.6763945
 110.6198311  45.9099913  45.6015921 109.6058941  45.7363415  44.4912958
  94.9316502  66.7175198  62.5887680  94.7274017  67.3038149  61.8602276
  95.2932358  65.9351158  62.1724415 110.4971218  43.3586073  34.5274758
 110.4384804  42.9960489  33.6435390 110.0873470  44.2210436  34.4602847
  11.6120864  64.6349335  46.0411358  12.4350978  64.7841406  46.5065718
  10.9332801  64.8740482  46.6722202   5.5927993  83.2301235  33.8046789
   5.6808712  82.8412628  32.9344702   6.3398601  83.8240051  33.8783622
 100.5941296  49.4538975  41.5156555 100.8455181  49.5828247  40.6011009
 101.4149761  49.2480946  41.9629622  83.6975384  58.8928366  78.1010818
  83.9289188  58.8687658  79.0295887  84.5305920  58.7788248  77.6436281
  13.2375910  15.5237007  61.7402840  13.7173560  15.2266788  60.9670877
  12.5770285  14.8466682  61.8870020  94.9223614  68.1630182  18.4020507
  95.8433151  67.9028511  18.3824551  94.5540237  67.8010750  17.5960970
  98.6409760  40.9501505  54.3994856  98.1494713  41.5963840  53.8925028
  98.9327335  40.3089094  53.7514734  58.2184505  87.4379921  36.0230350
  58.8791561  87.9453373  35.5515409  57.3935175  87.8855705  35.8349013
  82.9792928  15.7226865  89.9387208  82.6499032  16.2851732  89.2377606
  82.9974507  16.2880342  90.7109158  69.5673847  58.6555052  29.7449827
  69.8966217  58.3289766  28.9075971  70.3538370  58.9012957  30.2321315
  98.6049366  43.6647463  30.0390339  98.4496975  43.7820959  29.1018248
  98.8608742  42.7465343  30.1262856  92.3259068  53.7690067  48.1781530
  92.6128769  53.9962864  49.0625906  91.4457226  53.4118843  48.2962942
 100.7067013  89.4019794  69.1412115 100.2301693  89.5524502  69.9576092
 100.0841999  88.9361286  68.5829020  87.4952221  77.7419806  49.9765110
  86.8437958  78.4197378  49.7961855  87.6208782  77.3009443  49.1363096
 100.0568104  63.8085318  38.4980965 100.7807255  64.0557098  37.9226971
 100.4679012  63.2939243  39.1926599  78.7502575  55.5529261  58.5486031
  79.4914961  54.9479198  58.5763454  79.1114426  56.3572979  58.1760931
   9.1927196  33.9310169  71.3901520   9.4626857  34.4115210  72.1727562
   9.1117717  33.0231667  71.6825294  99.2348766  86.5364361  89.9277401
  98.7304020  87.0811844  89.3236065 100.0043678  86.2701321  89.4245434
  20.2162268  48.8781751   2.7161133  21.1578944  48.8519953   2.8858196
  20.1013567  49.6151988   2.1162522  77.9920149  65.2789831  45.6610680
  78.5908604  65.9952211  45.8723164  77.1479607  65.5605125  46.0139799
  74.8145056  62.0275354  30.2715302  75.2935123  61.2671232  30.6010103
  74.4901705  62.4656439  31.0583568 109.5096207  61.4974642  50.6265068
 109.2678070  60.6043291  50.3814125 109.9755001  61.4001179  51.4569950
  30.5314876  57.8383303  59.0069914  30.1244117  56.9720125  59.0031290
  31.4634182  57.6644707  59.1393185  72.5220394  77.1964312  18.3449507
  73.4157705  76.9319487  18.1269562  72.2863197  77.8273344  17.6647794
 106.5550041  92.3840904  21.9980049 106.1334705  93.2008362  22.2653151
 106.4047909  92.3348427  21.0539484 111.0515690  59.1617155  78.8413334
 111.9438457  59.1756439  79.1875696 111.1143970  59.6123075  77.9991627
   5.1378490  93.1467628  70.2895021   5.7701351  93.4217739  70.9534454
   5.3015281  93.7286568  69.5473099  70.6301928  59.6202517  58.0252600
  70.9282780  59.0305233  58.7177896  70.9207058  59.2032909  57.2141027
   8.5240795  80.7428646  39.4513822   7.6626445  80.5758667  39.8338509
   8.6352207  80.0504017  38.7999344  69.0384960  71.1198282  46.9853497
  69.1625023  71.1270380  47.9344559  69.3223906  71.9883204  46.7001057
  86.8534088  61.0055113  72.6246309  87.3451424  61.7266130  72.2316456
  85.9746933  61.3603258  72.7595520  94.2403507  53.7360859  22.2589684
  94.7342873  54.3761778  22.7713513  94.1305733  54.1484785  21.4021635
  10.2641441  58.1434536  53.5373163  10.0160171  58.7140417  52.8099298
  10.7741405  58.7061882  54.1199589  25.7017280 104.8517990  37.5943446
  24.8404743 105.0507927  37.2270989  26.1509754 105.6965542  37.6227856
 102.8456879  89.6679497  24.5322680 102.4088764  88.8169003  24.5662427
 103.6702061  89.4959831  24.0774822  74.3032312 102.0993042  42.1690321
  74.8784876 102.3967648  41.4641714  73.7083769 101.4793015  41.7471600
   7.3032810  81.5972519  57.8608704   6.5017177  81.4556503  58.3645296
   7.6163341  82.4559307  58.1452942  74.4825888  51.7392159  28.4041357
  75.3353739  52.0515347  28.1017423  73.8483191  52.2592974  27.9107261
  50.9281352   1.1167621   9.3185389  50.9961035   0.4399299   9.9919653
  51.7692854   1.5724277   9.3511772  83.6444759  88.9813900  44.1962862
  83.7686443  89.5469761  44.9584675  82.8875160  89.3527985  43.7431908
  95.6341839  59.3616056  42.0732975  96.1266899  59.8801899  42.7094889
  95.4245663  59.9786711  41.3722134  33.1265880  62.3218393  34.8201275
  33.2613041  61.5000820  34.3481159  33.9116909  62.4201155  35.3588152
  27.2053577  81.7790031  26.2784648  27.7901985  81.0368633  26.4314795
  26.9675399  81.7098808  25.3538585  21.0875846  69.6821690  25.2736831
  20.3448631  69.3790913  24.7514367  21.0693599  69.1328573  26.0573673
  12.3313953  81.4231300  11.4340043  12.8642227  80.7265759  11.0504079
  11.5454532  81.4515400  10.8883655 111.4261055  97.8699780  51.9309521
 111.8973923  98.3673382  52.5993538 111.8936062  98.0593395  51.1174297
  18.9283706  74.3532324   9.6275997  19.5620109  73.8345814  10.1233125
  18.9457275  73.9758587   8.7480998  18.9829113  74.4224024   0.6267989
  19.6425583  73.7774801   0.3715118  19.1975166  74.6381521   1.5343374
   7.3338176  64.9363422  71.3702536   6.9221546  65.7942867  71.2668371
   8.1178714  64.9793434  70.8228588  99.1788483  66.8814325  58.8922358
  99.9730778  66.8080997  59.4214344  98.7721920  66.0168076  58.9495277
  88.9680481  53.3933115  69.0147829  88.6575985  53.6918974  69.8695946
  89.0213966  54.1904211  68.4875250 111.8456459  62.1072197  52.2440863
 111.5971756  62.9432964  51.8497849 111.1332417  61.9077492  52.8514767
  16.5157081  80.0175095  62.3275375  15.7305576  80.4480839  61.9893217
  16.3448955  79.9084187  63.2630348   5.4491904   2.1415328  12.0417809
   5.9370711   1.4351463  11.6184378   6.1001208   2.5943279  12.5779748
  87.8302956  75.2388144  57.8583288  88.2764149  75.0613403  58.6864042
  88.2389927  74.6403313  57.2330141  17.6600554   8.7119579  34.7537255
  17.7656462   8.0206012  35.4072618  17.3709967   8.2535648  33.9647079
 101.9849491  98.7836933  44.8778868 102.2224998  99.3099213  44.1144180
 102.0687771  99.3844604  45.6183481 110.8436871  90.4531860   9.1833246
 111.4388275  89.9874496   9.7707999 110.7354546  89.8647022   8.4361893
 101.6373825  38.5268784  26.0325050 100.7895470  38.8288236  26.3584471
 102.0662212  38.1450343  26.7983508  86.0671139  68.1838942  44.7592068
  86.9921207  68.3705330  44.5986938  85.8558941  67.4774694  44.1488123
  49.7777655  13.3358001  47.1165657  48.8248255  13.3802604  47.0380783
  49.9739459  12.3989581  47.1249485  25.0428107   4.3840980  41.8885183
  25.9205821   4.2673873  42.2519970  24.4540598   4.1079711  42.5909090
  55.7026958  88.5362530  37.0314932  55.2148199  87.9611874  37.6209855
  55.2092791  88.5130692  36.2115955  49.8733809  18.3597659  37.6327920
  50.5516531  17.6900672  37.5451422  50.3520205  19.1885948  37.6196551
  22.6809455  74.2768383  32.4565744  22.0304920  74.4413376  31.7738771
  23.4333183  73.9149809  31.9883585 112.0159149  57.0604229  48.0945444
 112.3110390  56.4749241  47.3971701 111.0929680  57.2208929  47.8979826
  86.0438538  54.4446325  20.5822110  86.3971806  53.9968538  19.8135221
  85.1227760  54.5949984  20.3694916  10.0329544  96.6241932  13.8438118
  10.5282356  97.2248459  14.4007194   9.1841079  96.5398121  14.2780685
 110.0101089  71.0825634  28.2854414 109.8695469  71.5208864  27.4461889
 110.9593201  70.9730673  28.3424425 106.9492340  59.1430950  43.1985712
 107.2484970  58.3784866  42.7065945 106.7971420  59.8125839  42.5315714
  17.6395942  67.6027822  63.9505196  17.5661899  68.1200886  63.1484985
  18.5595466  67.3403645  63.9829206 102.6095009  49.1538239  34.4729018
 101.9103241  48.7634087  33.9485312 103.1318665  49.6509838  33.8434577
   2.2272541  73.3886814  42.0716476   1.6957237  73.5926056  41.3021564
   3.0887939  73.7546158  41.8714476  53.6949014  36.9238298  86.6914946
  54.6367597  36.9583051  86.5243388  53.2939767  37.0987623  85.8400864
 109.9556255  89.7068882  47.3523569 110.1157951  89.8851871  46.4256525
 109.0386295  89.9459553  47.4872541  18.7672283  68.1170845  24.1030335
  18.5671093  67.9058409  23.1911349  18.3826877  67.3986673  24.6052599
  36.2440921  93.9085865  31.0231900  36.4349605  93.9063740  30.0852156
  36.5625431  93.0612564  31.3344121  30.8512355  47.3572731  79.6528625
  30.1119854  47.1419191  79.0842152  30.7986976  48.3064461  79.7648716
  70.9179640  56.7377234  14.8180306  71.1650467  55.9174824  15.2450991
  71.7514801  57.1557426  14.6018267   2.2370388  47.3926497  43.3279419
   2.5836040  47.7194595  44.1581917   1.2923290  47.5334167  43.3907366
  95.9381485  86.6257763  53.5102797  96.1360645  85.8127975  53.0453777
  95.0314331  86.5219688  53.7989378 102.4224567  56.0152531  42.4353790
 103.0522823  55.3085947  42.2933149 101.6106510  55.6952429  42.0419312
 101.1927986  88.4491158  21.0347486 101.8862057  89.0448284  21.3185644
 101.6354942  87.6102448  20.9061360   8.3991195  90.2140808  34.2001891
   8.5910942  89.2768383  34.2310905   9.1775848  90.6303501  34.5702529
  85.2561092  77.4535275  47.7021933  84.8992729  78.2945108  47.4164581
  85.5277920  77.0211220  46.8925953 103.0375004 100.1622677  64.2999077
 103.0300236  99.7636890  65.1701403 103.9499664 100.1025295  64.0169382
  77.1073583   1.0443766  20.0429928  77.0209459   1.3187057  20.9559548
  77.6054815   1.7482788  19.6275150  35.4638007   7.6284313  76.0474062
  35.8701041   8.0533027  76.8028116  34.5565703   7.4810981  76.3147402
  68.7147427  81.9103813  30.7408881  68.7458229  81.0313511  30.3633142
  67.9894447  82.3402214  30.2876663   5.9135582  90.1099873  43.2713175
   6.1513664  89.9504948  42.3579502   6.5606739  90.7441235  43.5800838
  76.7915297  75.1570940  38.7239361  76.2878609  75.8543348  39.1439390
  76.6025829  75.2540207  37.7905893  26.9598247  86.9734097  62.5202751
  27.0630886  86.4824677  63.3354712  27.5580265  86.5471268  61.9065428
  75.4537058  71.3892555  30.2386260  74.9215364  71.9159126  29.6422601
  76.1365891  71.9874811  30.5419850  95.2970982  76.2780666  37.1164656
  96.0245705  76.0295010  37.6867580  95.7092094  76.7574072  36.3976955
   6.1794807 104.9406624  52.6595354   5.7727100 105.3571892  53.4193230
   5.5785896 105.1218128  51.9367933  13.7217285  66.4838219  54.9890804
  12.8134109  66.7113829  55.1875830  13.7079574  65.5357361  54.8579979
  92.0145988  61.1121368  26.2449217  91.8600178  60.8650589  25.3331685
  92.4128723  61.9810152  26.1933899   5.4395439  99.2278099  80.3961849
   5.9186412  99.0225887  81.1990452   5.9981491  99.8555279  79.9377489
  87.6773643  69.2335892  28.1253290  87.9568768  70.0915861  27.8060365
  87.6838207  69.3190622  29.0786839  91.1590767  60.8171082  44.1298294
  91.1779022  61.6496134  44.6018600  91.8192673  60.9157801  43.4437943
 101.5833473  98.8580799  37.1562362 102.2909927  99.5024300  37.1729422
 100.8900166  99.2499447  37.6872325 103.9507580  92.8986645  47.1113825
 103.4743214  92.1900177  46.6788721 103.2990456  93.3169460  47.6740074
  12.0129774  97.9695957  85.5783314  12.1419333  97.6386755  86.4672047
  11.4511011  97.3177546  85.1592493  84.8148060  72.9407263  27.7988219
  85.0608063  72.0388317  27.5931597  85.6307125  73.4351921  27.7211261
  13.8725330  84.3180180  43.4395313  13.7903263  84.8887062  42.6754713
  13.7272789  83.4362411  43.0966043  91.1899567  64.3821621  21.9786620
  92.0724297  64.5958757  21.6756654  90.7114315  64.1550207  21.1813879
 100.8692932  64.8230457  34.8955441 101.7932034  64.5863724  34.9767709
 100.8153057  65.2959681  34.0650845  20.8606532  19.4586467  35.8955383
  20.1838114  19.0707492  35.3408670  21.2801459  18.7103938  36.3202453
  70.7926464  58.0777073  89.2038441  70.4095984  57.3310041  89.6642113
  70.9035969  57.7726507  88.3033657  98.6833000  92.2337246  56.3630581
  99.4316387  92.5787163  55.8760309  98.6744308  91.2988091  56.1579132
  98.6665058  81.9181728  47.3748159  98.1056595  81.9556236  48.1495905
  98.8227940  82.8348255  47.1477413  21.3665439 106.1381245  32.6624274
  21.8101551 105.5693913  32.0331573  20.4430057 106.0951805  32.4145150
 104.1442776  66.9753265  30.9253407 104.0743732  67.2780991  31.8306994
 104.7000504  67.6265383  30.4972458  81.1628819  54.5174837  38.4655476
  81.5885258  54.6586704  39.3111968  80.6238270  55.2977037  38.3355069
   8.8638213   6.9933700  57.9483700   8.6854460   7.8199577  57.4998617
   8.0025389   6.5911292  58.0607510  53.2685043  71.2858105  54.5633841
  52.9922058  72.1503639  54.2593479  53.5261489  71.4235353  55.4749107
 100.0541496  49.3808317  19.0295470  99.1206741  49.1815662  18.9578831
 100.4852676  48.6952734  18.5192657   1.0465195   9.5070266   6.0561371
   1.6727116   9.5278739   5.3324807   0.1904013   9.5796966   5.6342232
  91.7029858  81.7435551  35.1047325  92.5816059  81.4347839  35.3259254
  91.1474133  81.4097691  35.8091164  98.0712318  61.9840479  11.2644970
  97.4382877  62.2783756  10.6095278  98.1055927  62.6973581  11.9018662
  29.3934154  45.5829828  69.7136391  29.0532874  46.4247339  70.0169671
  30.1062440  45.3803365  70.3194774  91.3550377  77.6642370  29.5845127
  90.4233265  77.4877119  29.4541955  91.3765144  78.3845043  30.2145839
 110.5424786  52.3189449  79.0675449 111.4107895  52.1034622  79.4078779
 110.5692291  52.0434666  78.1512308  66.0146761  75.6664801  41.5148926
  65.3838778  74.9778366  41.7248821  66.7830992  75.4574633  42.0459938
   0.2868702  94.0176392  43.5204840  -0.1361607  93.9120007  42.6683569
   1.2094165  94.1664028  43.3130980  87.7787018  76.9189072  71.7193365
  87.8361130  76.4212036  70.9037256  87.1384811  76.4412928  72.2468138
  12.4017002  64.2327070  82.6440525  11.9507171  63.4894037  83.0444813
  11.8194915  64.5142078  81.9383430  97.4898624  56.4692736  54.3359041
  97.7467060  56.0907841  53.4950686  98.1806946  56.1994696  54.9410343
 100.1776600  71.8693018  37.0106244 100.2715397  70.9847164  37.3640728
 100.2280140  72.4401617  37.7773142  89.3189240  74.1526461  64.8199987
  89.9311733  73.6452770  64.2871189  88.4836197  74.0818214  64.3579531
 106.5224648  47.4156857  43.5836554 106.1796093  48.1334114  44.1161537
 107.4684334  47.5608635  43.5664988 107.8741837  69.3771744  45.7622242
 107.4461079  69.1702223  44.9314690 107.1696758  69.7097206  46.3183784
 108.0022907  92.5193024  43.8144255 108.8718891  92.1209621  43.8511944
 107.4111080  91.8327713  44.1232967  20.1468708  95.0239277  53.8441658
  20.1844360  95.6767941  53.1451797  19.5253612  95.3851891  54.4761848
  87.2401810  80.8755112  29.0687752  87.8619385  81.2395668  29.6989417
  87.7744102  80.3259659  28.4953451  83.7770176  99.6327877  48.4422112
  83.4748173  98.7304497  48.5455847  84.7194195  99.5898151  48.6042833
  32.7179958  77.6039267  32.9308510  32.8225090  76.6528225  32.9043317
  33.3684970  77.9337406  32.3109293  25.0912429  88.8164234  55.9923744
  25.1264907  88.2784843  55.2014208  25.3001167  88.2106972  56.7035007
  27.0771362 101.8337250  31.3013124  26.3050701 101.4763069  31.7399454
  27.8119804 101.3488388  31.6769838  67.5549507  78.0321836  44.4880724
  67.2166061  78.7377548  45.0393629  66.8079519  77.4469137  44.3628168
  69.1388321  84.4648838  53.3052349  68.2462835  84.7806454  53.4462357
  69.0285492  83.5677147  52.9903603  68.3072233  87.8245831  46.6223621
  67.9423380  88.5695839  46.1448050  69.1404390  88.1458473  46.9669867
  35.6968547  66.3091278  66.5852547  36.5804721  66.6364813  66.7534590
  35.6541301  66.2129831  65.6338501 112.4700928  88.7235641  61.0367918
 112.5829697  89.5013523  61.5831852 113.1122589  88.8287449  60.3348064
  90.0423527  84.8480988  30.7795310  90.7932186  84.3539047  30.4505849
  90.3809071  85.3199100  31.5404582 101.0048962  84.5125675  35.2496076
 100.2196217  84.8992443  35.6369925 101.0377407  83.6260986  35.6092167
  82.9301357  52.5824499  33.3466482  82.4222946  53.0082512  32.6559758
  83.5131645  51.9832706  32.8804994  75.3402901 104.2362499  22.0608163
  74.4487429 104.4758511  22.3137355  75.2790165 103.3139706  21.8120742
  55.4673721  74.0954208  45.1071405  56.2220337  74.3814707  44.5924568
  55.0825073  73.3852434  44.5935631 100.0254059  61.0217476  27.3034668
 100.5025291  60.3413486  27.7784801  99.9363708  61.7364359  27.9339600
  23.3190916 106.4214581  69.8161543  23.1552122 105.8099812  70.5341184
  23.1175421 107.2819822  70.1837242  48.3406593 104.7223186  34.9040198
  48.2586052 105.0445461  35.8016109  49.2661239 104.8413086  34.6904802
   9.5552398  67.0532131  50.8076429   9.0367653  67.0183754  50.0037766
  10.4161693  66.7221165  50.5519056  97.9349613  85.7209873  43.5942650
  97.5474644  84.8807716  43.3490705  97.3641109  86.3748646  43.1907797
 100.8910656  82.9979229  56.6646719 101.1476135  83.2095528  55.7671022
 100.4108810  83.7696552  56.9648123  18.5573532  89.2293549   9.5735466
  18.0554725  89.6010780  10.2989244  18.8588287  88.3817291   9.9004459
   4.8766043   5.7042694  42.8086996   4.3252089   6.4834880  42.7378035
   5.5733111   5.8447265  42.1675301 104.5202827  59.9257326  71.3016558
 103.6254406  60.2575970  71.2285089 104.9463558  60.2051497  70.4913330
   6.8387271  78.6333656  61.2229156   6.6127540  78.3402586  62.1056700
   6.9356777  77.8249693  60.7196045  18.0996276  61.8144035  65.7731438
  18.5702945  61.3688087  65.0687599  17.2345211  61.4047861  65.7796907
  18.7284042  70.2125120  84.7918606  18.5527755  70.3264380  83.8578320
  18.2460929  69.4211912  85.0314808 108.2553387  79.1072130  40.7528210
 108.3209610  79.9517250  40.3070402 108.7144279  78.4959793  40.1767397
  98.0288792  87.2504044  60.5742836  97.8633690  87.8154755  61.3289499
  98.2706261  87.8538418  59.8716736   5.6292774  47.3373413  23.8821149
   5.2535011  46.7270327  24.5165849   5.1434757  48.1511784  24.0158963
   2.1594813   7.3435878  26.2519169   2.1520045   6.4445686  25.9233856
   2.8721621   7.7674198  25.7737064  42.3716071   6.1382198  42.2499275
  42.4407580   6.0384368  43.1993961  43.1466391   5.6945419  41.9053888
  67.2188330  76.4896631  55.6064606  67.3810005  76.1368370  56.4813566
  67.6004744  77.3672390  55.6275845  59.9416593  45.1452715   2.5651943
  59.3331388  45.8662111   2.4033940  60.8085779  45.5482656   2.5173866
  89.9355507  46.7056417  45.2602720  89.1761303  46.4784431  44.7237206
  89.6854019  47.5199604  45.6967878  32.4779655  78.9887190  44.3030071
  32.7885391  79.2082691  43.4246111  32.9879619  78.2177925  44.5516300
 110.0800419  79.8742628  65.5798912 109.8705959  79.0746927  66.0626507
 109.2519474  80.3525066  65.5378151  98.7536430  71.2742519  84.3636036
  99.5807743  71.3400078  83.8863468  98.1541634  71.8457413  83.8837528
  95.4721165  44.7457743  63.5431767  95.7128906  44.7085285  64.4688463
  94.6343136  44.2853403  63.4949017  85.6367397  69.1187954  32.1626973
  84.7859001  69.4365501  31.8604803  85.4696560  68.2201195  32.4467850
 112.4145031  57.6314259  52.6757956 111.4831638  57.7783298  52.8409243
 112.8312874  57.7544498  53.5286665   1.2433769  89.9295425  53.8365698
   1.4713146  90.2162647  52.9522181   0.6137134  90.5812645  54.1448164
 108.9562465   2.0192527  64.4184589 108.2358456   2.1070384  65.0425959
 108.7315656   1.2462711  63.9005280   0.0897934  98.9185524  21.1065602
  -0.0538872  97.9912281  21.2954021   0.8459617  98.9291191  20.5197597
   2.5440075  70.9458923  34.3542290   2.8176357  70.9623814  35.2713370
   2.6372005  70.0297785  34.0929151  19.8789074  60.6191206  30.3557968
  19.8199512  60.0125694  29.6176577  20.8168079  60.7799101  30.4593515
  75.3137114  15.4201984  23.5961747  76.1625960  15.4881572  23.1591177
  75.4633906  14.8074626  24.3161583  64.7428799  72.7128124  26.9906020
  64.3023300  73.5149956  27.2710371  65.2611971  72.4462318  27.7498913
 102.2116756  61.9808578  33.2401013 103.0120277  62.4936962  33.3526564
 102.3309517  61.2222528  33.8115263  24.9118377  99.8485470  42.3803234
  24.1722347  99.6424961  41.8086863  24.5305492  99.8979282  43.2569122
  96.7067719  92.1994591  83.9975071  96.7326450  92.1151638  84.9506378
  96.0711670  91.5414143  83.7160301  10.3180172 101.1257076  59.6743679
   9.7369148 101.5720940  60.2902317  10.9552433 101.7930222  59.4196939
  13.0305769   4.3785285  38.9349651  13.0285551   5.2807712  39.2546439
  13.9578059   4.1568946  38.8492036  30.1674224 102.1121311  61.1214876
  30.6136943 102.1380615  60.2750874  29.4752933 102.7691936  61.0475540
  92.1323872  71.9537210  73.5929823  92.0367718  71.0312462  73.8298941
  91.6285419  72.0468330  72.7844667   3.4496452  64.8325634  61.3362932
   2.5591232  64.7220087  61.0031748   3.8078930  65.5587196  60.8258200
   4.2647792  72.0974159  52.8221273   3.6575939  71.7828846  53.4919262
   5.0842144  71.6386271  53.0072403  31.9592525  72.4277544  70.0543642
  31.0587455  72.7023077  69.8813391  32.2284175  71.9726992  69.2564249
 100.7151413  73.7420750  23.2093954 101.5641117  73.9603472  23.5938931
 100.3102779  73.1499481  23.8432002 111.1060619  93.1452274  70.2821684
 110.4608917  92.5968266  69.8358107 111.7185879  93.4033108  69.5933676
  86.3518047  64.6648741  34.3426228  86.7500019  64.3019581  35.1338029
  86.7349339  64.1573095  33.6272049  32.0481684   6.7154884  62.4952841
  32.4417498   6.2155723  63.2104063  31.2930396   6.1930179  62.2250462
  67.6619867   2.7682239   2.9175865  67.6470998   3.1150658   3.8096153
  68.2598069   2.0219118   2.9607308  93.3245373  46.8601894   4.6986482
  93.8992786  46.0972881   4.6363261  92.4507141  46.4917707   4.8287475
  57.9066801  85.8705807  28.7088966  56.9687748  85.8470535  28.5191274
  58.1112576  86.8021107  28.7904000   6.8513061  76.0676908  28.4162235
   7.0673324  76.9677877  28.6599255   6.9014598  75.5785847  29.2374969
 102.8455448  49.6751785  46.9440889 103.4944057  50.1149702  47.4934387
 103.0145454  48.7420416  47.0741892   1.0341217 100.6468773  55.2589083
   1.0638382 100.7214260  54.3050766   1.8940212 100.3017521  55.4990816
  78.6659145  64.2202997  10.0551867  77.8689098  63.8716650  10.4545212
  78.3536196  64.8671532   9.4225115  30.1823951  58.9741898  61.6056442
  30.0026561  58.6517096  60.7225084  31.0279514  58.5880995  61.8341303
  95.4638100  95.4433823  50.5237865  95.6713200  94.9372292  49.7383070
  96.3078403  95.7859135  50.8179188  97.5470257  89.5911884  59.2812252
  96.9389343  89.2518330  58.6244965  96.9864941  90.0207520  59.9273682
 109.2690563  87.4713326  64.9621439 108.5069656  87.0625019  65.3724146
 108.9644146  87.7259159  64.0911579  28.0307105   6.1612224  63.5063314
  28.5060122   5.8564090  62.7334070  28.3293440   5.5882358  64.2125463
  98.0447292  87.6833725  46.0600376  97.3628998  87.0158958  45.9837770
  98.4462452  87.7158928  45.1917315  85.0895646  21.6794092   3.3695233
  84.9546388  21.1788208   4.1741573  85.0113061  22.5941021   3.6405289
  67.9719067  59.6609211  39.4263959  68.8591290  59.9515343  39.6376133
  67.8474140  59.9164248  38.5123634  76.6855764  96.7309570  12.2643316
  75.9768009  96.0878849  12.2825480  76.6147327  97.1411324  11.4023733
  25.2637436 100.2803993  55.1791096  24.9963428 101.1673164  54.9380493
  25.8302070  99.9975681  54.4612217  69.9633980  72.3645830  52.3968840
  69.9781942  71.5968990  52.9684353  69.8780966  73.1069517  52.9950857
  98.9824581  52.2209072  71.5601254  99.0750980  51.3975143  71.0808802
  98.8200855  51.9543886  72.4650240 111.2851429  92.1389771  76.9788694
 111.0590172  92.2325897  76.0534859 110.7096481  92.7568245  77.4297476
 100.9015274  69.1312218  34.2885709 100.6749916  68.5323334  35.0000811
 100.0724506  69.2926216  33.8382316 108.6583233  94.9403000  92.1464443
 109.5925808  95.0819874  91.9937611 108.2931519  94.7904110  91.2744236
 103.7388229  67.4626970  38.2241392 104.6521664  67.7200174  38.3498907
 103.7497520  66.9173670  37.4375463  21.6124584  77.7490139  83.4380436
  21.5266182  77.3346901  84.2966461  20.7895614  77.5486088  82.9920483
 113.4439945  65.8748007  77.1367216 112.8371143  65.7276201  76.4112806
 112.9242802  65.7040119  77.9221869  75.4838085  85.6238461  63.3902931
  75.6119394  84.6793270  63.3025074  75.1891136  85.7426739  64.2932129
 111.9568539  84.1190910  58.0175781 111.6616821  84.6892929  58.7274885
 112.4532032  83.4280205  58.4560823  19.2050555   8.9453887  17.5457168
  18.5175326   8.3752918  17.8900039  19.2354395   9.6805953  18.1579113
  19.4077159  90.9686279  25.4142213  19.5618583  91.9133377  25.4167318
  18.6174442  90.8563042  24.8859286   3.3057834  80.2649593  21.4517593
   2.6396228  80.8698082  21.1252356   4.0761234  80.8137512  21.5988374
  71.3826323  76.9438839  29.0233231  70.5852079  77.3881721  28.7353063
  72.0706558  77.2971535  28.4593582  12.6432277  74.0663767  34.0582514
  12.4986602  74.7638845  33.4188676  13.5526706  73.8009024  33.9215684
  94.9877357  73.1516504  52.8357458  95.6725407  73.5499287  52.2984886
  95.2908897  72.2560692  52.9849672  98.6380863  57.5401688  17.8579736
  99.2261791  57.8121138  18.5625494  99.2199135  57.3352146  17.1260560
 109.5622349  81.5489388  45.8163786 109.5955086  81.6518593  46.7674494
 109.0965557  80.7236958  45.6809187 113.4523392  71.6553926  38.7271214
 112.5211906  71.8263197  38.8684988 113.8670540  72.5152254  38.7973809
 106.6202927  68.8661003  38.4867263 106.9568920  69.7303057  38.7235427
 107.4011707  68.3548403  38.2744384  65.6883669  69.3127489  31.3019466
  65.2968407  69.7033072  32.0832253  66.3721466  69.9302816  31.0424638
 104.0729332  89.0211296  32.4511027 103.5772896  88.2616806  32.7573800
 103.7770271  89.1528702  31.5503740  84.6534729  23.4912324  35.0129771
  84.1562462  23.5048985  34.1951728  85.5679321  23.5593534  34.7384524
   5.5552627  96.7520237  68.6920500   5.5355693  97.3105812  67.9149675
   6.4220859  96.3464260  68.6735630  27.4496605  80.7092190  42.8213978
  27.6995613  80.1084805  42.1193409  27.0696594  80.1453972  43.4951448
 112.6716328  71.2737226  43.8407850 113.1904602  71.7123938  43.1665373
 112.0668030  70.7154417  43.3521748  85.7018566  98.8127613  65.4477787
  86.4143276  99.3250751  65.8300877  85.4690838  99.2853737  64.6485996
  15.0005867  57.6437092  40.2941942  14.7322704  58.4212923  39.8046970
  14.8632671  56.9181108  39.6851945  15.9625866  77.8277063  33.4619689
  16.8632461  78.0992174  33.6389852  15.6762172  77.4052906  34.2717743
   1.3470794  67.8573990  25.4709673   2.0153667  67.4210739  24.9425340
   0.6482174  67.2089243  25.5564332   3.7082626  57.6902056  30.2251554
   3.5390331  57.6350164  31.1656594   4.5230915  57.2038984  30.0994706
  33.3905508   8.1736659  36.9631147  33.4050372   8.9789485  36.4458704
  33.0744173   7.5046348  36.3559055  12.6403381  91.0341263  39.8424339
  13.2036354  90.3228664  39.5374131  12.5545932  90.8847523  40.7840109
 105.0845528  98.9637947  73.4246922 105.2888584  99.2849827  74.3029451
 105.7963848  99.2948246  72.8770065  95.3741646  70.8568573  20.1518178
  94.8480225  70.6098032  20.9123254  95.1454544  70.2118301  19.4825935
 103.2855415  71.5167093  90.4560566 103.0956078  71.9750214  89.6374512
 104.2170525  71.6754055  90.6088448  99.2079163  92.4423218  39.8579431
  98.7280750  93.2646275  39.7590661  98.7922287  92.0106983  40.6043625
  87.8917503  71.3363838  56.7190886  88.5386562  70.7023907  57.0285940
  87.1227264  71.1810064  57.2674370   7.6949073  73.0216885  64.5976925
   7.3727371  72.7033186  65.4409456   7.3767902  72.3804665  63.9621878
 107.4893856  77.9246235  58.7738132 108.0994415  78.0418873  58.0455875
 107.2872066  78.8145542  59.0625715  70.6945657  24.4783752  91.1191540
  71.4248132  24.1080348  91.6149528  70.1544809  24.9146478  91.7780992
  19.7650196  70.0537825  35.9043980  19.2013504  69.6126318  35.2688742
  19.9875881  70.8870840  35.4892969  67.5097942  92.1404648  30.6428456
  68.4417629  92.3148632  30.5115008  67.3070049  92.5448513  31.4863968
  15.7702209  57.0522308  75.2461576  15.7486297  57.2598791  74.3120003
  16.6985656  57.0841789  75.4772234  10.3043605 102.9719353  33.6116552
   9.4544555 103.3630753  33.4093952  10.0929309 102.1033573  33.9538598
 109.0334988  91.9867706  26.0097218 108.6673927  91.1198616  25.8346319
 108.7828350  92.5107479  25.2488995  10.0705531  21.9801139  19.4344985
  10.1435378  21.1481094  18.9668798  10.4922392  22.6169300  18.8575411
  52.9637148  34.6222019  60.3209591  52.2960856  33.9395427  60.2539396
  53.6088660  34.2670631  60.9324217 108.5059071  59.2926407  15.8281422
 108.2949924  58.5806894  15.2240980 108.4727383  58.8887405  16.6953194
  93.3316135  92.8224754   3.4052062  93.0089951  93.7167072   3.5169584
  93.7887001  92.6287270   4.2236000 102.0520306  87.1436691  33.3718967
 101.6448879  86.7320633  34.1341615 101.8244743  86.5703011  32.6399827
  50.3014090  19.2586994  12.0003831  50.0759413  18.6246490  11.3196719
  49.4777586  19.4185161  12.4611366 102.8049374  70.5705786  85.6540871
 102.0355606  70.9512091  86.0776520 102.7146626  70.8116817  84.7321606
  94.6325874  50.7421494  49.6270895  94.0037251  50.7388783  50.3487206
  95.4861546  50.6623077  50.0528717  10.7860614  85.7852459  64.0862942
  11.4309455  86.2226105  63.5303497  10.5165626  85.0175285  63.5820961
   0.2953292  88.1676865  42.2774506  -0.2469872  88.8195229  41.8333483
   0.9357120  88.6829758  42.7679825  14.5312216  13.5962486  34.5531559
  14.0244009  14.3814277  34.3461275  14.0297511  12.8785610  34.1662669
  16.8997432  89.5654106  11.9593370  16.5761997  90.0764751  12.7011967
  16.2001182  88.9379883  11.7774045  32.3706508  74.9283266  25.0572371
  33.2137918  74.5999813  25.3695416  31.9609952  74.1731644  24.6351624
  81.9380093 101.7131042  24.9628472  81.3657665 102.2707272  25.4899430
  81.4668655 100.8826542  24.8949480   5.8552124  94.6065903  55.3633928
   5.1150467  94.3582916  54.8095560   6.3944103  95.1671219  54.8054504
  64.5091822  91.3501365  13.6151230  63.6870291  91.0793479  14.0237438
  64.7814658  90.5913408  13.0990612  24.7181369  81.4816666  72.4177647
  24.1059352  81.7699432  71.7407608  24.5289184  82.0456600  73.1676579
  63.9277219  35.7510393  92.2620060  63.0788469  35.5229681  91.8830236
  64.1783952  36.5611188  91.8179662  90.3629875  96.3665676  40.2287912
  90.5984211  95.4541779  40.0604105  91.1680984  96.7644596  40.5600119
  11.4904548  70.1821566  17.5160515  10.6409027  70.1538467  17.9561472
  11.5994026  71.0992384  17.2644222  44.4361594   2.1616744  81.1120701
  43.7901213   2.4243259  80.4564190  43.9256766   1.7089652  81.7833996
   2.6382019  64.2946863  34.9175787   2.9842521  64.7560453  35.6815338
   3.3468391  64.3301535  34.2750692  12.8909781  18.5305976  29.6451211
  13.0863478  19.4676303  29.6384978  13.5456850  18.1535816  30.2328730
  18.4265853 100.4838276  33.6479902  18.4507133 101.4385605  33.7122440
  19.2848541 100.2455902  33.2974911  57.3464014   5.5736160  43.6065054
  56.6912177   5.2968883  42.9658890  57.3326971   6.5298366  43.5653353
 107.5762272  99.8369312  50.8872414 106.6485977  99.6234226  50.7865620
 107.6467800 100.1850510  51.7760992   0.3085472  90.3588200  76.7116022
   1.1085750  90.7918453  76.4138126  -0.3190182  91.0715199  76.8318653
  84.3606091  91.6805077  42.5037622  84.5377922  90.9885311  41.8665743
  85.0091267  92.3570919  42.3091364 111.7489529  71.6941977  57.4164391
 111.1919403  72.3775959  57.0437002 111.2097263  71.2899780  58.0961990
   7.6750042  78.7241793  28.5934067   7.6599647  79.5311403  28.0787945
   8.5439922  78.7121010  28.9945769  12.2155667  76.1482923  85.9887374
  11.2736607  75.9794061  85.9656740  12.4291325  76.4358823  85.1010931
  16.5029956  84.9551678  40.9456921  16.5336753  84.0706635  40.5810690
  15.5703975  85.1299858  41.0719061  14.0040256 105.3278446  71.7306614
  14.8930027 105.4914379  71.4157200  13.4678985 105.9847546  71.2865114
 107.8347969  89.5218372  59.8113012 108.4792709  89.7923088  59.1572905
 107.6036167  90.3304291  60.2684307  34.4336750  71.1206770   7.4122930
  34.5255233  71.9932747   7.7948791  33.5596420  70.8338976   7.6769644
  96.6990280 106.4895725   5.7912505  97.5654793 106.1929131   6.0696149
  96.8355274 106.8322468   4.9079752  35.3112700   7.5392913  69.2269516
  35.0401690   6.6537666  69.4689846  36.1303809   7.4162959  68.7472105
  92.6826763  89.5160484  53.7466478  92.5893974  90.1800442  54.4297552
  92.3714733  88.7077808  54.1541862 106.1701870 104.3623066   5.2174634
 105.3943634 104.7858047   4.8500594 105.8566666 103.9408207   6.0176474
  55.5319121  15.0679874  61.0077381  55.9166720  14.2017936  61.1415386
  54.7597220  15.0770187  61.5733051  45.8021357   1.3616275  46.5239906
  44.8933890   1.3672733  46.2233448  46.3163569   1.5351200  45.7355070
 111.3783836  47.9899359  83.4615707 111.1937618  47.1087694  83.7866879
 110.6781006  48.5312796  83.8259697  74.9140522  32.3335045  92.3096761
  74.0263960  32.1500938  92.6173390  74.7994301  32.6164024  91.4024489
  52.3771095  10.3333676  22.8706598  52.1947432   9.4370359  23.1527305
  51.5240479  10.6807303  22.6101613   4.6207618  91.7151833  10.6534255
   3.6795043  91.6284335  10.5026197   4.9919891  90.8949304  10.3284574
  31.3736772  62.2329236  32.1306896  32.3028850  62.1881819  31.9053006
  31.2085914  63.1634665  32.2825551  25.3541373  94.8819137  10.0096703
  24.8496436  95.5875278  10.4144263  26.1312913  94.7959185  10.5618203
   4.3534087 104.7571116   7.9375619   4.9628162 105.3328091   8.3995467
   3.5477256 105.2689840   7.8662264  70.9086560 101.9758380  33.0103159
  70.1642083 102.5774682  33.0019307  70.9180688 101.5941829  32.1325445
  41.4102077  98.5353500  14.8436606  41.9375991  98.2898206  15.6037927
  40.5207919  98.2649369  15.0718033  17.9977321  83.9200283  26.5319848
  18.8999652  83.9981938  26.2219858  17.5434064  84.6641493  26.1368847
  40.4532146  19.6787238  28.7274981  39.9907136  19.5610130  29.5572376
  39.8058534  20.0791860  28.1471634  43.7548970  70.6584764  34.9234080
  43.6878347  69.9347735  34.3005204  44.3086862  71.3030816  34.4829154
  24.3665742  69.7121072  27.4152660  23.6502933  70.0203205  27.9704022
  24.1543769  70.0454355  26.5434289  25.1346015  74.0790535  55.9613991
  25.9751701  73.6453605  56.1083078  24.6548604  73.4830213  55.3862238
  13.6363553  97.4850143  17.6058173  12.8932904  97.0064748  17.2382772
  13.9979791  97.9715306  16.8650341  20.8158969  86.4821911  45.4371262
  20.7748651  86.6194869  46.3835382  20.1941680  85.7736779  45.2707100
   5.0930070  86.5026785  10.6269705   5.2025794  85.6818486  10.1469040
   5.5969094  86.3788248  11.4313173 105.3466675 104.8312326  22.5027800
 106.1342738 104.7756985  23.0439138 104.8502634 105.5594242  22.8763461
   6.6046952  98.2852620  29.8874593   6.3403176  99.1140950  29.4882464
   6.5922259  97.6569254  29.1654706  51.0383557  97.3706657  27.5734639
  51.1801194  96.4472771  27.3649311  50.9990548  97.8053082  26.7215395
  32.3113679  75.9475446  29.4787097  33.1971168  76.3102484  29.4897437
  32.2866296  75.3530551  30.2285099  93.5111806  79.8220509  86.5222431
  93.0424353  79.2826336  87.1590656  93.1767604  80.7073420  86.6659624
   3.8137721  87.1178926  13.8514137   3.8802051  87.2802270  14.7924054
   3.1157684  87.7025843  13.5561860  24.0498065  87.2459925  14.9743629
  24.8779678  87.3056436  15.4506195  23.6998319  86.3865734  15.2091968
  50.2871751  92.0781625  36.7056966  50.7186460  91.2250066  36.6589022
  50.0995397  92.3019827  35.7941437  78.8629007   9.7397310  45.9736967
  79.4289064  10.4938483  46.1385393  79.1075516   9.4437540  45.0968981
  21.9517135  90.2196062  53.3205175  21.2780952  90.8901060  53.4340954
  22.7096223  90.5584038  53.7969875  28.6776972  25.2057171  28.9590335
  28.7131166  24.2491770  28.9558840  28.3604836  25.4307675  29.8336530
   0.1491545  73.0827802  91.9765247   0.9663294  72.8912359  92.4367113
   0.4212569  73.5657065  91.1961574  51.2253618  21.2720466  26.7250228
  50.2875233  21.4043188  26.5864992  51.3914633  21.6298389  27.5971627
  30.5841064  89.8760152  27.6780009  30.6430864  90.5397559  28.3651710
  30.4712485  89.0513242  28.1506300  69.6766806  48.1608820  16.9976473
  68.8468599  48.6373186  17.0229006  70.2246284  48.5995626  17.6484454
  29.5655774  74.8949195  47.2125483  29.9403810  74.2345572  46.6297293
  30.2813958  75.1258493  47.8045893  78.6942101  13.7740755   2.1280882
  78.8215065  13.7254155   3.0755377  79.4903278  14.1926563   1.8006477
 109.5467470  82.3003245   3.2544395 108.7352059  82.0757175   2.7992666
 109.2901752  82.9757906   3.8822541  22.7049445  92.8290248  27.8204155
  21.7709731  92.8632022  27.6136255  23.0546855  93.6548877  27.4859548
  49.9880981  18.7750161   3.0238897  49.6559334  17.9019427   2.8149840
  50.9025049  18.6313689   3.2677305  67.8075981  24.3450856  30.7711077
  68.3131361  24.6636009  30.0233078  66.9076967  24.6114445  30.5827761
  43.7716531  81.8165303  17.2569072  42.8288983  81.6698504  17.1798539
  44.1265821  81.5425420  16.4112210  19.8483371  86.5298391  10.0746262
  20.5394982  86.8830717   9.5144844  19.5944499  85.7088900   9.6529436
  12.0332574  98.7004680  43.3192825  12.6088237  98.4422905  42.5993538
  12.0827006  99.6562690  43.3344936  37.4709987 104.3655512  24.7742486
  38.3358764 104.1708771  24.4132590  37.2643804 103.6086155  25.3225088
  81.4903450   3.7388924  80.1576614  80.6582832   4.1804692  80.3276825
  81.7709446   4.0760177  79.3068695  67.4897528   0.9301988  38.7742376
  67.4910545  -0.0262891  38.7373447  67.7036333   1.2045743  37.8824949
  33.4486913  84.2932535  11.5668809  34.3056726  83.8750434  11.6500187
  32.8366279  83.6626554  11.9462967  17.7915835  21.6539168  20.1318145
  18.2259452  21.0750794  20.7583213  17.3015809  21.0631919  19.5598233
  33.7685155  97.0631022  44.4481993  34.3177365  97.3281569  43.7104130
  33.6312579  97.8689135  44.9462557  50.3766679  90.9909690  14.6689343
  50.3138875  90.0641788  14.4379568  50.9051656  91.0036684  15.4669094
  82.4164009   3.9696687  17.8399229  81.5890408   4.0033191  17.3597336
  82.1757221   4.1643745  18.7456810  79.9852467   4.0591908  16.5588796
  80.3961849   4.8463991  16.2015808  79.5310974   3.6666337  15.8133066
  81.4039898  12.8600526  39.3847227  82.1930981  12.8328586  39.9258447
  81.5539932  13.5856938  38.7787724  37.3004054 106.2464538  29.8943424
  37.1386241 107.1833965  29.7838998  36.7119693 105.9835826  30.6020689
  42.8257131  88.9236570  20.6137276  42.3571538  88.0962670  20.7237911
  43.6064386  88.6917174  20.1108432  17.2874116  95.8946360  24.4425225
  18.1817006  95.7266808  24.1454148  17.2704791  95.5742181  25.3443408
  71.7352533   6.2337106  11.4721906  71.1686563   5.6842792  12.0137870
  72.3012733   6.6847628  12.0986104  10.9204911  93.5991550   3.4177887
  11.3938426  93.6762524   2.5894004  11.5608596  93.8494611   4.0837529
  22.1768331  88.9865399  15.6522202  22.9233169  88.4607518  15.3649223
  22.5020551  89.4690037  16.4122784  48.2410717   6.6734970   6.9433457
  48.4379482   6.0434037   7.6364934  47.8931808   6.1414230   6.2277341
  73.1279680  44.6292996  76.3843537  73.6418316  43.8344740  76.5272820
  72.8624675  44.5809483  75.4659820  44.1111565  33.1272960  63.8582420
  44.5879889  33.7630653  64.3917799  44.5883036  33.1049490  63.0287409
  36.4786220   8.2687128  53.1736374  37.3731422   8.3482540  53.5049009
  35.9485626   8.7713552  53.7922001   3.3113860 101.5402073  42.9332495
   3.6505269 100.9482402  42.2618437   2.9021596 100.9624357  43.5774136
  37.5660110   2.4683617  12.9830241  37.9456067   3.0280852  12.3056388
  37.0788145   1.8022668  12.4980617  34.5838904   5.6060034  24.2581916
  34.8695469   6.3905036  23.7900114  35.2318192   4.9402311  24.0276098
  39.1122102  99.7059715  17.5070930  38.3005523 100.2023322  17.6123023
  39.8060702 100.3413022  17.6835620  94.3135071  21.1879420   5.7202977
  94.7650433  20.3507400   5.8272201  93.6600304  21.0225415   5.0407052
 101.4797211  44.1231394  29.7550154 100.5435085  44.2746019  29.8845744
 101.6883278  44.5907116  28.9462566  62.9632521   2.0172016  16.5636015
  62.3870850   1.5884018  15.9308350  62.7817726   2.9511210  16.4582849
  32.7371501  94.2013538  35.6774235  32.3835515  94.5364214  34.8534513
  33.0882405  94.9744344  36.1193681  62.5606823  35.4921508  35.0892639
  62.1507215  36.0397363  34.4197035  61.9386864  35.4974103  35.8168101
  58.4389210   2.9018232  25.9183049  58.1467533   2.9913193  25.0111890
  58.2674408   3.7578768  26.3107300  91.5167236   3.6085317  22.5505638
  91.4501095   2.9734787  21.8374705  92.4327087   3.5652578  22.8250360
  35.4381585  17.9317749  19.2226517  35.4155707  18.6501193  19.8548722
  35.9855366  17.2649205  19.6372783 109.3343136  84.5999933   4.7120336
 109.9055765  85.0667191   4.1020685 108.4831855  85.0277567   4.6180785
  20.8841132 103.2914705  43.1194305  21.6853522 103.7060944  42.7995348
  20.2262878 103.9861402  43.0888367  32.9191589  96.4277340   0.4116121
  32.0122337  96.6799427   0.2380760  33.0114745  96.5041257   1.3612822
  47.2786760   5.6702101  63.0190754  46.8110132   4.8891670  62.7232742
  46.5967846   6.2332988  63.3853912  70.7842097 101.3330049  14.1862798
  70.8400125 100.7021732  13.4685266  70.2329305 100.9034634  14.8403573
 112.0780203  94.7451616  33.0063748 111.8215225  94.7295952  32.0843124
 112.1006916  93.8236356  33.2642651  59.5121717  18.2864821  36.6943336
  60.1858664  18.8557971  36.3225222  59.3318081  17.6471341  36.0051775
  25.4028176 105.7896469  44.1101027  25.7055616 106.1596751  43.2808495
  25.2045917 106.5517612  44.6542692  45.4666661  99.6430219   1.4554794
  45.0258397 100.1056088   2.1681651  44.7778558  99.1170312   1.0491468
  81.8951321  32.7876067   0.4205566  81.9736290  32.0788741  -0.2180115
  81.3702869  33.4533787  -0.0238696 110.1468655  50.2148017  92.3231159
 110.9373090  50.7212486  92.5100391 109.9237820  50.4433444  91.4207668
  89.2078018  10.9827757  24.3693042  89.0573502  10.0375021  24.3766904
  88.5188961  11.3393414  24.9301028  59.7438097   3.5389033  17.9798508
  59.2774487   4.3595880  18.1386471  60.2228832   3.6894616  17.1649551
  99.6744919  17.4466014  52.1341753  99.5545864  16.4977133  52.0958900
 100.6076336  17.5630808  52.3128319  69.0353966  43.1784439  27.1758103
  68.9929628  43.2260084  26.2207341  68.4378910  43.8631392  27.4765015
  27.2703886  10.2100301   6.6849202  28.0052996   9.5971119   6.7065895
  27.1189666  10.4349732   7.6029098  88.3021832  13.9539635  48.1392193
  87.7849007  13.7011385  48.9038992  88.0064678  14.8405612  47.9325056
  69.5355606   2.4776742  54.5579529  69.9861479   2.7672431  55.3512716
  68.9872313   3.2216564  54.3088436  38.3309173  82.5701690  12.6970541
  38.9531421  83.2604933  12.4678934  38.1598901  82.1179724  11.8709171
  80.6327915  25.9356475  41.1502838  81.1604214  26.1899090  40.3931856
  79.7276974  26.0531831  40.8617973  74.6280718  34.7070384  12.2270548
  74.7892666  33.9394140  12.7756906  74.4584942  34.3476915  11.3562250
  81.5107346  24.5116544  23.1343818  81.4534569  25.4462004  22.9354477
  80.9415245  24.0938759  22.4880934  85.3138589 101.1048186  53.9262581
  85.3946065 101.0566617  54.8788309  84.5569085 101.6717411  53.7784100
  71.7053699  27.5494552  41.7566681  71.4230728  26.6664481  41.5182590
  72.4248028  27.7414846  41.1551905 110.7487961  69.3015080  91.5266057
 110.4213473  69.0723496  92.3963729 111.4181039  69.9659925  91.6900698
  94.8923683  39.9251199  14.6969712  95.7041264  39.5065308  14.4104910
  94.2595768  39.7158527  14.0099430  67.4009943  21.3681936  50.7840586
  66.6537619  21.2886977  50.1911402  67.9709387  22.0135999  50.3659105
 104.7885606  58.0174171  90.2056927 103.9399955  57.6277589  90.4162547
 104.9588439  58.6242449  90.9261059  76.5601873  10.6506598  39.0776873
  76.8271685   9.7693473  39.3389201  77.3716116  11.1583877  39.0837073
  79.9415063  81.5158868   5.6314081  79.0118932  81.3382745   5.4882020
  80.2733277  81.7653251   4.7689107  55.0049400   8.2818913  32.4528050
  55.7615328   8.8675612  32.4246526  54.3468332   8.7646496  32.9528761
  36.8207883 105.1341932  54.0800285  36.5011977 106.0150913  53.8848066
  36.2130403 104.7995954  54.7395086  65.9663819 100.0806511  22.9130650
  66.3736009 100.8235461  23.3586097  65.0860452 100.0311715  23.2856178
  33.0091428  97.3869736  40.0150633  32.1166419  97.6175458  40.2729511
  33.1325769  96.4980662  40.3479910  75.5602169  37.4138212  37.0859313
  75.4203796  36.6473436  36.5298843  74.6810293  37.7560711  37.2475672
  38.0801511  22.0168233   7.7345628  37.7816248  21.5740514   6.9401652
  37.9857063  21.3602185   8.4246218  80.3860950   4.2621186  41.7287159
  80.9362602   4.4969088  40.9814358  80.3099632   5.0716376  42.2338009
  65.4735565  27.8994274  29.9009728  65.5113363  27.5399017  29.0146613
  64.6634102  27.5460792  30.2684426  68.0334044   3.2251698   5.6274569
  68.1887865   2.7288556   6.4310497  68.0560732   4.1413778   5.9036463
  73.0105257   3.6323258  54.6998596  72.8022480   3.2787782  55.5646467
  73.9082670   3.3449101  54.5334673  45.0728463  99.1460783  17.6612544
  44.7300100  99.6248103  18.4159136  45.9156655  99.5608414  17.4772346
  56.6331100  20.1650023  43.8639975  57.0557928  19.5985913  44.5095587
  57.3339558  20.7377124  43.5524750  84.5185280  27.8650093  17.0570028
  84.3225384  28.7583876  17.3393047  83.7044907  27.3833656  17.2039652
   7.7967023 105.5760102   4.0934590   7.9033136 105.0469308   4.8839906
   7.6447343 104.9375707   3.3966565  57.8293085  20.7239556  30.8166265
  57.6286507  19.8850131  30.4017234  58.6150408  21.0324883  30.3653359
 108.8924668  92.2658611  32.1234751 108.3167718  92.4494470  32.8658366
 108.5741947  92.8390742  31.4260769  74.3198442  25.5407643  37.7184367
  74.5310783  25.6014824  36.7868114  73.3666992  25.6214118  37.7536654
  51.8121481  34.5663643  23.6514711  52.0785999  33.7380600  23.2525373
  51.4943218  34.3222451  24.5207357  71.9899416  13.2605541  37.2872710
  72.1577406  12.3549175  37.5478435  72.8590250  13.6292529  37.1292090
  91.3832760  33.3322906  22.4524355  91.1517239  34.0396094  23.0543590
  90.5981636  32.7862811  22.4111438  16.7588805  99.0963543  56.5518236
  15.8042812  99.0262580  56.5591383  16.9378518  99.9668384  56.9074345
  15.2693462 101.2088293  18.6890829  15.7911204 100.7859004  19.3710780
  15.7836818 101.0963667  17.8896785  76.2918425  57.5489950  22.2408295
  76.9961023  57.5802898  22.8883386  76.2386036  56.6269875  21.9892359
  61.6346073   4.8384923  63.3806801  61.4369488   5.0353831  62.4650431
  62.0319700   3.9679617  63.3580923   8.7146138  95.6112302  41.1453772
   9.3423986  94.9616504  40.8288908   8.7691878  96.3259733  40.5110312
  64.4295645  28.7238216  63.9983225  64.8263741  29.0242767  64.8159409
  64.3424320  29.5165157  63.4689140  40.1993179  95.2394343  42.1461487
  40.2133702  94.5787550  42.8386307  40.5351066  94.7842265  41.3739634
  77.3523399  48.8180288  90.4583009  76.5505335  49.2999157  90.6610871
  78.0552527  49.4520205  90.6004441  70.4969931  28.0800557  50.4868793
  70.9354591  28.2871079  49.6615839  70.9117460  27.2692871  50.7816124
  52.8238297  24.4787765  52.5343943  53.4605122  24.2453504  51.8588352
  53.0336046  23.9036036  53.2701969 108.0280110  72.1972268  92.3054474
 108.6706540  72.0569604  91.6100603 108.0867526  73.1324404  92.5007818
  89.4200706  15.7969284  34.9665380  89.6589279  16.7072845  35.1409864
  90.1377678  15.4594934  34.4305563  84.0221310  18.5561121  34.3180299
  83.6462879  17.7662075  33.9294124  83.9919281  18.3966184  35.2613640
  51.4959526  45.0884914   9.7647095  51.2781143  44.5096731  10.4952896
  52.4352741  44.9620771   9.6308291  64.3749619  70.9525347   6.0032958
  64.4793320  70.0673580   6.3522953  63.4689903  70.9835196   5.6959081
  70.1309681  21.7495751  17.3354328  70.5002260  21.0823035  17.9139030
  70.4321146  21.5019464  16.4612353   3.1445648  29.8294425  51.7010117
   2.2689106  30.2156639  51.7180538   3.3576538  29.7600317  50.7704163
  39.2851305  15.6421304  76.5327835  39.2650604  14.7969973  76.0838079
  38.3877301  15.7717443  76.8395519  37.4941539  97.5817806  38.7074995
  37.6963376  97.7656621  39.6248555  36.6612338  98.0270500  38.5519075
  77.0645523  30.5913782  35.9772539  77.8327894  30.6521964  36.5450096
  77.2167587  29.8060203  35.4516315  59.8485326 106.2123337   9.1023219
  59.6451806 105.3830043   8.6697835  59.2977952 106.8561451   8.6568755
 103.5132691  26.3927024  88.7893215 103.6691996  27.1317642  88.2013536
 103.0108639  26.7650383  89.5140195 103.1961915  44.2419826  86.1837900
 102.3163983  43.9117443  86.3658244 103.4686753  43.7749105  85.3939629
  93.9232871  43.9794212  77.6177657  94.5901391  43.5526162  78.1557048
  94.3754765  44.1950821  76.8021381  87.8560257  33.4846902   0.2905684
  87.1892071  33.6320829  -0.3801484  88.1101036  34.3633151   0.5728615
  43.0027723  75.4337741  41.6156340  43.0668973  75.2356864  40.6813526
  43.5951852  76.1744691  41.7446375  63.9167833  22.2386432  39.5646119
  63.7136889  21.3530207  39.8657084  63.0871677  22.5713229  39.2221332
 108.0487728  46.6137886  11.9591045 108.6618900  46.9234896  11.2924671
 107.4454594  46.0431671  11.4830399  52.3563051  19.3273854  52.2406149
  53.0990505  18.8368547  52.5926733  52.1620369  19.9820256  52.9113913
  48.4033108  42.0981598  37.1768618  49.2534924  41.8150377  37.5134134
  47.8318357  42.1046114  37.9447174  83.5808754   8.5800654  42.8778267
  84.3805885   8.4915048  43.3963299  83.0613899   9.2320329  43.3482552
  74.4533157  20.8387899  19.8491871  73.7247276  21.3929367  20.1290321
  74.4624376  20.1186538  20.4797053  84.3020153  29.5846534  41.7207479
  84.8361015  28.9261007  42.1649313  84.7476959  30.4132009  41.8971443
   4.5903300  91.8230670  90.2700052   4.0534685  91.2129014  90.7756842
   4.8222349  91.3382905  89.4778940  72.9186296  21.2799883  50.4075050
  72.5406170  20.6563425  49.7875023  72.1685791  21.7758489  50.7358027
  88.7336731  11.9472015  12.1602559  89.1289711  12.5840259  11.5649128
  89.4787788  11.5132475  12.5758803  87.7980518  15.1609063   8.3110589
  86.8446255  15.2373934   8.3480006  88.0583096  14.9722195   9.2126662
  22.6370525 101.8662689  38.0108809  22.1550559 102.6203809  38.3503294
  22.7507829 101.2935365  38.7693501 107.9899979  42.3639631  52.5957775
 108.0003262  41.4496040  52.8787422 107.2742176  42.7603436  53.0925417
  82.5320053  33.4513474  21.5951610  82.5714588  33.3390808  22.5449347
  83.3069324  33.9716792  21.3830900  73.0702686  28.3220959  34.6462059
  72.2341824  28.0595207  34.2611766  73.6743164  27.6181126  34.4100547
  33.5362958  86.9687880  52.9058695  32.9484939  87.4307252  53.5036421
  34.2653512  86.6858912  53.4578514  95.4936886  12.7664101  38.4334946
  95.5648327  11.8175149  38.5372686  95.9847260  13.1256461  39.1724610
  49.2046022 100.0207401  45.1167297  48.8870763  99.1680980  44.8193884
  50.1499032  99.9888766  44.9696779  72.0567322  44.6395206  32.0483828
  71.1902618  44.5759392  32.4501538  72.5753975  43.9669943  32.4898958
  71.0369015   5.0736332  21.4003873  70.1472855   4.9947289  21.0560226
  71.3628101   5.8964348  21.0356760  69.3729019  15.6215525  87.2558498
  70.1687956  16.1216044  87.4367809  69.6262503  14.7091746  87.3958969
  54.2643594 103.4643123  18.9432669  53.6881303 102.7275494  18.7398660
  55.1246213 103.0660630  19.0758455  15.9618901  78.7181664  41.2419128
  16.1208152  79.6358419  41.0208941  15.7803868  78.7261224  42.1817160
  80.6302357   1.4182225  28.1010127  80.4069614   1.4359879  29.0316391
  81.5703678   1.2391244  28.0836391  60.5933952  22.9434586  69.3768930
  60.6076050  23.2909274  68.4850979  61.4754009  22.5974607  69.5132113
  47.0886087 102.8241653  42.6618576  46.9329404 103.1890551  43.5329819
  47.8119897 103.3433018  42.3104954  56.0993004   4.7105423  20.0409055
  55.4379702   5.0919509  20.6183124  55.6003857   4.3648690  19.3007553
  75.1404285  18.4143829  20.7880664  74.8892546  17.5486302  20.4661751
  76.0898447  18.4473622  20.6707573  48.0391884  28.3868051  48.3800411
  47.0865202  28.4759998  48.3536148  48.3047199  28.8821006  49.1549015
  67.7493572  23.9318275  33.6069441  67.8660059  24.8118305  33.9650273
  68.0129337  24.0094686  32.6900315  69.8712540  22.8789139  40.4734230
  69.1942501  22.2444510  40.2381516  70.3152514  22.4875331  41.2257004
  44.7343493  22.2434664   5.7802427  44.7885609  21.2958598   5.6564045
  45.3441191  22.6043892   5.1366997  46.1088037  10.1928580  29.9094605
  46.5048075  10.4603624  29.0800905  46.0259962   9.2418081  29.8395991
  33.5566234  81.5554453  20.9395552  32.7792358  81.9726611  21.3108134
  33.2278775  81.0621572  20.1880074  38.7054967  85.5420304  17.9158676
  37.9778670  84.9678636  17.6768732  38.3529519  86.0993004  18.6096919
  12.1187066  91.8628276  47.7166224  12.5331735  92.7223230  47.6409960
  12.8499936  91.2457753  47.7430534  86.7683125  34.9608731  32.8024530
  86.6603661  35.4388666  33.6247063  86.2865639  34.1444278  32.9350090
  70.6157827  13.6819160  32.1912003  70.2756262  14.0231788  31.3641167
  69.8813534  13.7552166  32.8006864  12.3025562  24.0952706  37.5834918
  11.9047786  24.9658990  37.5857615  13.2218696  24.2514062  37.7996588
  42.7945279  90.8416641  11.5342069  41.8477534  90.7292617  11.6191578
  42.9146432  91.7846251  11.4218318 109.1010997  61.7229699  92.2520553
 108.7892434  61.3929623  91.4093976 110.0419280  61.5468454  92.2449104
  64.2496443   3.8859534  53.2320213  63.8185740   3.2362723  53.7872887
  65.0051641   3.4254360  52.8668499  21.4193056  45.1234716  78.6913848
  21.4766978  44.5942681  77.8958464  20.7045172  45.7366418  78.5201121
  98.9078808  28.0488634  40.8491802  98.9386177  28.7003613  40.1485825
  99.5895863  28.3240271  41.4622021  86.6923904  13.2478833  50.3415346
  86.9804001  13.2588732  51.2543154  85.8088493  13.6153615  50.3647184
  87.8275204   3.9788413  35.1775169  87.3994350   4.5571226  34.5462012
  88.1558704   4.5674604  35.8571815  64.8218584   0.1944920  15.8559489
  65.5087137   0.2098185  16.5224516  64.2602825   0.9384678  16.0735893
  73.6330938  49.7531652  20.7753062  73.6275244  49.9588680  19.8404872
  73.4493113  48.8146162  20.8151221 108.9714050  47.8185606  39.6506691
 108.5715008  48.5991716  40.0340128 108.4708786  47.0890284  40.0160265
  43.0307626 104.3250190  20.8969402  42.9015493 105.2729944  20.9265494
  42.9571008 104.1021187  19.9689746  72.4021149  40.2622175  31.5451765
  73.1753349  39.7034788  31.4666080  72.7065325  41.1307907  31.2822199
  29.6879196  29.6913862  33.8430834  30.5668020  29.3218589  33.7579322
  29.3587899  29.3385053  34.6697521  58.1150866  34.9695349  38.6699939
  58.3522511  34.0592790  38.8472486  57.6709270  34.9406576  37.8225756
  95.7102489   8.6775696  55.6396008  96.5161705   8.2269013  55.8918333
  96.0064983   9.4268334  55.1228142  66.8604374  18.0794907  39.6038270
  66.2266970  18.6404371  39.1566801  67.1930027  17.5000727  38.9183283
  89.9862480  10.9253860  50.6257915  90.0339890  10.3932250  51.4199972
  89.8571587  11.8189931  50.9436512  77.2165012   9.5743012  52.0865679
  78.0171871   9.3395191  51.6175175  77.2708511  10.5240417  52.1927309
  83.5484982  22.7947354  32.4719048  83.4843636  23.4410262  31.7687488
  84.4864750  22.6224279  32.5540233  81.7605542  94.0937257   9.9636042
  80.9247159  93.7352133  10.2620411  81.6312169  94.2570627   9.0293545
  56.5282773 104.7267613  52.5433064  56.2210130 105.4080843  53.1413221
  55.9309053 104.7759042  51.7970133  59.3813848  29.8172379  41.1732435
  59.4886589  30.7664585  41.2341022  58.4536552  29.6934152  40.9727049
  41.3102961  20.6413555  44.1671419  40.9288740  20.2734232  44.9642467
  42.1373940  21.0284734  44.4539881  17.6861762  86.7919851  25.6089759
  17.2416162  86.9873000  26.4338708  18.5425328  87.2112334  25.6932974
  46.8832493  30.4479909  33.8576674  46.7514229  30.2553606  32.9293633
  47.6270390  31.0502672  33.8740349  92.5285053  34.4560480  17.7648258
  92.9953575  33.6205554  17.7495694  91.9456768  34.3909669  18.5213363
  83.9402771  14.8308539  43.9406824  83.3869839  15.1270437  43.2179356
  84.7988129  14.6882188  43.5421848  54.1669225 103.5494486  50.6736755
  54.3909597 104.0415741  49.8838329  53.2626771 103.7996510  50.8633423
  63.7792397  10.9099901  43.5759258  63.7103605  10.0362670  43.9607573
  63.2174587  11.4580321  44.1239023  17.8219270  94.0532637  32.1782231
  18.5483836  93.4400213  32.0667624  18.0798434  94.5974088  32.9222775
  48.9555979   2.7563733  22.5018406  48.6251163   3.6458242  22.6278925
  48.9850760   2.3846354  23.3834147   7.6934241 105.9572672  82.8947926
   7.3689269 105.2717120  82.3108864   6.9344997 106.1985822  83.4258652
  90.8859348  27.5808191  47.8234529  90.1080036  28.1379247  47.8497219
  91.4739227  27.9595399  48.4769583  56.7804050  45.7049704   1.5047596
  56.1501884  45.0284004   1.2571518  56.4428759  46.0567617   2.3285012
  32.6527452 102.2005788  84.7054291  33.1556367 101.7272187  85.3682041
  33.3146762 102.6352358  84.1676998  12.1572875  68.9090229  50.3100252
  12.0319556  67.9617549  50.3666544  12.7165651  69.1217113  51.0571527
  74.1902351  21.8687439  45.2746487  74.8914814  21.2185931  45.3169489
  74.6337080  22.6845765  45.0423050  21.8009184  84.9852269  77.2570086
  22.1308802  85.8493584  77.0107735  21.4138792  84.6386259  76.4530790
  56.1673737  28.2475209  55.6381321  56.0208321  27.3652625  55.2969933
  55.4432869  28.7642884  55.2847528  49.3965100  96.7009295  53.7679768
  50.3010892  96.4255131  53.9166355  48.9480542  95.9054947  53.4809065
  48.7939310   9.5547348  32.1927142  47.9928923   9.0317464  32.2252011
  49.2933750   9.1829622  31.4656854  48.3443021   3.4938447  90.0980361
  48.2278299   2.5593631  89.9265507  48.2110833   3.5826032  91.0417554
  59.2655468  21.5116429  65.4274940  59.3874645  20.5860901  65.2160263
  58.4802628  21.7665625  64.9431610  98.6092758  10.9705353  38.2675195
  99.3658257  11.0485291  38.8487053  98.2701969  11.8627012  38.1947041
  56.3696861  36.2006903  42.8892469  56.9256401  36.8923140  42.5303555
  55.4772949  36.5280294  42.7764702  80.6243229   5.0796062  50.1201916
  81.0764980   5.9214187  50.0643396  79.6960449   5.3088433  50.1647902
  69.1911268  18.3158076  41.1473322  69.1330338  17.8368640  41.9740534
  68.4248447  18.0294752  40.6502914  45.7200479 104.3001879  34.4873476
  46.6491651 104.4829663  34.3474603  45.4060220 103.9916745  33.6373854
  49.9773073  33.3522844  25.5381227  49.4121122  34.0824461  25.2858329
  49.4605494  32.5706816  25.3424430  68.5624790  29.0179539  54.8568249
  68.2715273  29.8304105  54.4427109  68.1937790  29.0536118  55.7394457
  56.4937448 103.2978821  33.5612011  56.9530534 102.4604279  33.4984541
  56.2738179 103.3815027  34.4890308  73.7491846  31.3315105  51.9073296
  74.4690990  30.7394481  52.1250820  74.0774441  31.8469048  51.1705494
  56.3338757  22.5790167  25.7264376  56.5479946  21.8631077  26.3246489
  57.0540333  22.5878096  25.0959420  53.5232449  34.9326396  37.9290867
  53.1743383  34.6629524  38.7786555  54.2928267  35.4602003  38.1427574
  56.8160534  23.0695367  46.6182518  55.9413242  22.6980519  46.7325926
  56.6731739  24.0157056  46.5941525  81.5926552   5.8896971  31.9963837
  81.4016819   6.0111326  32.9264450  82.4745655   6.2446147  31.8846226
  94.2625999  21.0022259  20.2773643  94.7120380  20.6864142  21.0612631
  94.9329853  20.9867263  19.5942974 110.7219219   1.1930526  51.0443163
 109.7670937   1.2496988  51.0806417 110.9632587   1.7075828  50.2740908
  51.1048412  17.2190654  33.5871053  50.7981682  16.3722122  33.2630301
  50.3099442  17.6667786  33.8768053  50.1957417  28.2813406  30.1773691
  50.6694174  27.4953914  29.9050736  50.8781385  28.8773108  30.4862094
  81.3518429   4.5990279  24.8356509  80.8071327   5.3849614  24.7929168
  81.3072395   4.3262365  25.7520723  71.6090059  35.4457426  24.9007797
  71.6095638  36.1057210  24.2074823  70.7003450  35.1484919  24.9477649
  41.8485164  93.6458099  32.9408026  41.6062879  92.9010833  32.3904037
  41.0489272  93.8577891  33.4224176  60.8803558  22.1389389  20.1747513
  59.9713945  22.2953153  20.4308176  61.0490799  22.7817106  19.4858313
   4.5181133  14.3497682  51.7029142   4.4140007  14.2344272  50.7584095
   3.6408187  14.2100894  52.0594025  79.3883085  24.2885900  76.3279915
  78.8334656  25.0358224  76.1043262  79.3950319  23.7499332  75.5367661
  66.0761404  22.3800755  26.9049883  65.4683828  22.5634837  26.1885905
  66.2251902  21.4357781  26.8568110  59.6071146  64.6612280  92.2270727
  58.7251375  64.8253065  91.8932768  59.5726679  63.7663382  92.5650341
  46.0568475 102.2113297  24.1350079  46.0653447 102.0726294  23.1879497
  46.0787343 103.1627268  24.2379451  43.4378003 106.3923512  46.6687632
  44.1028833 107.0166191  46.9589090  42.6199483 106.8894625  46.6837597
  75.1054430   9.8463100  54.1395378  76.0207367  10.0031757  53.9074707
  74.8109865  10.6719017  54.5241499  31.7537498 104.4909679  47.0923901
  32.4149799 103.8143230  47.2378588  32.2583770 105.2851368  46.9166613
  72.5832510  31.8078113   2.8860483  72.2009039  31.1102533   3.4184569
  72.5623131  32.5796962   3.4517202  72.9691744  22.0351934  31.3824654
  73.1056166  22.9708552  31.2336397  72.4764776  21.7402053  30.6166553
  82.1231651  26.7450905   8.9152318  82.4674129  26.8166971   9.8055106
  81.3749313  26.1534166   8.9946294  38.3757495 101.3114280  51.6759205
  38.9275788 100.8825636  51.0218668  38.2397651 100.6445504  52.3489857
 100.5062697  93.1878651  54.5559025 100.7730362  92.2970296  54.3290091
 101.3292549  93.6668826  54.6532059  40.5109358   2.4968034  58.0599546
  40.7637024   3.1540149  57.4115562  40.9002542   2.8054315  58.8781309
   2.1458172  79.6364570  49.8689175   2.5714826  78.9280201  49.3860531
   1.9834303  80.3115702  49.2100668  50.4237603  91.1396611  22.5872660
  50.6036424  92.0726002  22.7034473  50.7256841  90.7344676  23.4002185
  74.0780783  16.9908917  31.9429302  73.8574934  17.9208422  31.8903351
  75.0328207  16.9671905  31.8786287  63.3317517 103.2244281  13.0053091
  62.6919507 103.6375967  12.4254978  63.1362390 103.5821456  13.8713610
  71.9398117  31.5285873  17.6838195  72.6302719  31.3102245  18.3097661
  71.6946936  30.6889486  17.2950292  71.9892836  29.3183923  16.3318992
  71.2794828  28.8015223  15.9507620  72.7447271  29.1367698  15.7728410
  89.1599655   7.7796423  39.0767026  88.2462883   8.0316150  38.9427638
  89.3765259   8.1170559  39.9458885  79.2795896 104.7598318  34.9844909
  79.5885801 105.3595931  34.3054867  78.9281701 104.0118492  34.5015264
 110.3800106  38.5090995  59.9463415 110.9565258  37.8209281  60.2784252
 109.7075272  38.0403686  59.4520760  12.5883520  13.9486313  67.9788542
  11.7991400  14.1857088  67.4918556  12.5457454  14.4769990  68.7758780
 102.0716572  27.1245265  14.0069675 102.7410030  26.4435363  13.9401972
 102.5662804  27.9425550  14.0559602  74.4058657   0.9706168  49.0884495
  75.1235056   1.2695366  49.6469069  74.8391914   0.5395218  48.3518267
  33.1237792  99.2444862  55.1368523  32.2921514  99.0712810  54.6956778
  33.7640809  98.7209106  54.6550703  69.1698217  25.7701921  65.6006384
  68.4026146  25.8311820  65.0315142  68.9107370  26.2258530  66.4015627
  46.0449075  91.2719119  13.2699752  45.1269960  91.3506425  13.0102277
  46.4607762  90.8089853  12.5426626  61.0608339  31.2836504  53.7960434
  60.8601427  30.3582501  53.6560822  60.6629848  31.4897418  54.6419001
  31.1473846 106.6653830  22.2516942  31.5390062 105.8329321  21.9873285
  31.0466813 106.5920129  23.2007504  46.2944269  41.8431854  59.5782089
  47.2330713  41.7149115  59.4413900  45.9811640  42.2167683  58.7544727
  82.7493286  16.6831398  63.5074282  83.6560535  16.7627728  63.2112169
  82.7998924  16.7694402  64.4593859  48.1636763  13.8959610  18.0402732
  48.8652897  14.4772518  18.3336496  48.3896303  13.6861873  17.1340883
  42.3498487   5.4057806  90.0611680  42.5087976   6.3191049  89.8228330
  42.9291486   4.9042385  89.4874990  77.8881311  21.9688320  50.3361893
  78.2026672  22.8504848  50.5361509  78.6585569  21.4103723  50.4400921
  81.7004204  40.8412361  32.1325660  81.5175438  41.7311287  32.4340248
  82.4596596  40.5656385  32.6462030  85.1952839  38.7535477   2.4612457
  85.0990868  37.8552771   2.1448778  85.1673794  39.2906380   1.6694209
  73.8520432  28.5269403  60.2438831  73.8800049  28.7957978  59.3256426
  73.6367464  29.3280101  60.7215500  88.0389977   9.5575833  80.3977585
  87.8191185   9.9857903  81.2251186  88.9564991   9.7848570  80.2468777
  45.4020929  28.4390020  48.4060764  44.8263979  27.7787757  48.7919569
  45.1854610  29.2470312  48.8712549  74.1115379  28.9027834   7.5298911
  75.0586891  28.9109135   7.3918098  73.7977171  29.6894741   7.0839465
  85.1098919   7.8370440  45.0295877  84.3192768   7.6658827  45.5413103
  85.7099533   8.2537770  45.6480551  60.8906651  41.5567255  40.1036072
  61.4821386  42.0714808  40.6526232  61.4578962  40.9142971  39.6772671
  81.3679028  73.4634304  14.6989465  82.1018696  73.4730482  15.3133094
  80.6287575  73.8030243  15.2034962  82.0257568  31.3007069  11.7503238
  81.0898018  31.2817383  11.9499695  82.2009468  30.4525447  11.3426912
 101.1673876  97.0196550  89.9266354 101.5987488  96.7637795  89.1113520
 100.9132382  97.9318827  89.7870663 110.9494591  27.1882796  16.5424740
 110.7803631  26.9956994  15.6202209 111.8298912  26.8476772  16.7007542
  48.9087819  96.3934053  18.7180495  49.6589612  96.2939036  18.1319082
  48.2054853  96.7156888  18.1543601  84.6558189  35.5412793  34.9154854
  83.8368416  36.0364842  34.9326181  85.3370190  36.2079358  34.8273563
  64.1589212  11.9955921  25.7324672  63.4931612  12.0502222  25.0468946
  64.9695826  11.7970145  25.2638221  85.5219269  26.1650085  43.9250135
  86.0564137  25.6451416  44.5252514  85.7156372  27.0732021  44.1571617
  81.2556648  16.4600539  47.5698090  81.6129684  16.9898391  46.8571377
  80.3475094  16.2970662  47.3150301 108.7283802  39.0866351  12.7867568
 107.7857399  38.9442873  12.8728175 108.8333607  39.4776058  11.9193745
  67.5957060  18.4391356  14.6252501  67.5479460  18.9016473  13.7885702
  68.3119726  17.8141785  14.5129037  67.5494194   6.8516660  18.6260784
  67.5889826   7.7801752  18.3968699  68.3825636   6.4936084  18.3196497
  54.2138814 100.6985701  43.9612961  54.7245835 100.8554197  44.7555304
  53.3228635 100.9596676  44.1940117  86.4153862  37.5220919  56.7119932
  87.3119354  37.6811624  57.0071459  85.8667469  37.9299068  57.3820066
  54.8288393  53.0803871   7.4176234  55.0670767  52.2680855   6.9708103
  54.4153500  52.7934837   8.2318383  95.4214764  23.5345697  28.8200688
  95.9093475  23.1614852  28.0858850  94.5236397  23.6106420  28.4970641
  88.4315014   9.2869455  52.7374315  88.2901478   9.1348201  51.8030310
  87.7771950   8.7390774  53.1709671  68.1741475   3.4190767  80.7986391
  67.3860978   3.9029853  80.5515790  68.8245725   3.6695735  80.1425648
  74.8076487  36.1306334  39.5588231  74.4948578  36.8864322  40.0559759
  75.0126600  36.4820671  38.6923957  88.7410831  29.0447068  39.7449160
  89.0708828  29.3847394  38.9131427  88.3759308  29.8101830  40.1886940
  77.4366713   4.6258691  46.1640406  76.7952442   4.6324641  46.8745089
  77.7831602   3.7335825  46.1624527  89.6534824  17.2393322   7.6763576
  89.4818306  17.1748745   6.7368823  88.9796066  16.6930819   8.0809897
  60.3580475  38.7362432   1.2279020  59.6308517  39.1184211   0.7366199
  61.1176872  39.2633128   0.9801573  86.6188622  28.5427475  22.8736854
  87.4761677  28.6140776  22.4539709  86.8164539  28.4031391  23.7998033
  76.6248178  38.0927134  33.7850809  76.7033529  38.5186744  32.9314876
  75.7686234  37.6653838  33.7616444  63.3577585  19.6569026  68.4402943
  63.1813526  20.0771403  67.5985622  62.5075150  19.6339083  68.8793755
  86.9106674  12.0945561  33.5493183  87.1659184  12.4363995  34.4061875
  87.6251030  11.5069067  33.3033872   1.0113861  44.6352911  14.4692218
   0.5155899  45.0250101  13.7491238   1.1967899  45.3680515  15.0565147
  63.4278393  22.9441810  68.2012653  64.0632963  22.4372196  68.7066555
  63.1265831  22.3412395  67.5216055  59.2291880  33.6802173  12.9074788
  59.2318487  33.5244727  11.9630373  60.1359224  33.9054537  13.1156409
  81.5267467  12.1989739  43.8754845  81.5605640  13.0010700  44.3967628
  82.1949577  11.6333961  44.2625952 106.2432003  31.2516212  25.1460767
 105.8359432  30.6909633  25.8064103 106.5557384  30.6440020  24.4757414
  99.4801426  38.3536077  41.1225080  99.7280693  37.4310279  41.0624647
  99.9847031  38.7826777  40.4314566  62.4959373   6.2505674  25.2385283
  63.1964350   6.8770403  25.0566888  62.1743536   5.9933794  24.3744254
  70.4822969  26.5029001  62.1509504  70.8844423  25.6525254  61.9738340
  71.1762619  27.0139217  62.5674820  74.0252018  22.8637052  11.8865371
  74.0207529  22.7975011  12.8414345  74.1084146  23.8011408  11.7118287
  86.6697311  28.1885552  34.1196132  86.0572338  27.4948239  33.8750482
  87.3645973  27.7367330  34.5984101  97.9820824  20.0726962  31.9643736
  98.6669540  20.7221818  31.8051434  98.3888054  19.2357910  31.7398715
  63.5403919  61.9244528  23.7435985  64.4184494  62.2775078  23.6000705
  63.6265659  60.9880686  23.5647535  98.8393879  22.6681042   6.0593319
  99.7727394  22.8244734   5.9157175  98.5665035  22.1410418   5.3083491
  91.3281155  22.4573970  23.0234551  91.6905689  22.7193284  22.1771359
  90.7889938  21.6914082  22.8263879  71.7742682  27.7433252  44.7206306
  71.6254807  27.2386479  43.9210081  72.2073746  28.5430074  44.4220352
  16.8640421  83.9621180  77.4699796  16.3630102  83.1490820  77.4053598
  16.2043951  84.6383255  77.6244045  13.7013052 100.2148598  88.3610088
  13.1539725 100.3163546  87.5823200  13.1511782 100.5210226  89.0820164
  81.1304379  20.0949216  38.9017797  81.7631626  20.7644320  38.6416912
  80.3052998  20.3797150  38.5090113  84.2783165  42.1471167  15.5377960
  83.3499622  42.0886946  15.3119946  84.4060326  41.4707994  16.2030160
  47.1599196 102.3582428  74.5089460  47.9360865 102.7804106  74.1407502
  46.5039442 103.0542963  74.5468748  97.2147560  38.8989162  14.0597892
  97.9030037  38.7707376  14.7125697  97.6839447  38.9758539  13.2290184
  88.0554962  25.2195168  23.7343073  87.5984287  26.0492373  23.8717294
  87.9797077  25.0571918  22.7940202  65.2803040  28.6961389  22.5396681
  65.4660034  28.4764957  21.6267014  65.8965015  28.1648636  23.0439305
  83.4502792  57.4726295   5.1520926  82.6107216  57.5028610   4.6933278
  83.9188290  58.2489824   4.8455334  95.4743099   1.0767283  16.8926680
  94.8002720   1.7561850  16.9083261  96.3005924   1.5580058  16.9358253
  90.7916451  23.9039183  50.4273987  90.2429485  24.6867347  50.3787088
  91.1099243  23.7785292  49.5334148  84.1089630  37.2913074  25.2005196
  84.7285366  38.0146241  25.1047564  84.2802906  36.9434571  26.0756660
  83.6762810  24.5828891  42.8525591  84.1041946  25.3415704  43.2494545
  84.0574932  23.8296652  43.3037376  25.5775927  67.3300474  79.5298028
  26.1912916  67.1602731  80.2444923  25.5351637  68.2845693  79.4721938
  98.6566639  46.0712528  21.1217356  98.5632324  46.4272308  20.2381182
  99.3529797  45.4189825  21.0447907 105.0043106   0.9154174  33.7631369
 104.9347019   0.0413129  33.3793044 104.1170216   1.1182436  34.0594530
  37.6808546  82.9259270  90.4371356  38.1917666  82.9982822  89.6309325
  38.2550810  83.2783669  91.1170447  96.4204216  29.7074080  51.6121578
  96.9244003  29.3575096  50.8774424  97.0656013  29.8295188  52.3086166
 111.4613914  34.8045230  29.0678859 111.5911293  34.1473722  29.7516680
 110.5249500  35.0003958  29.0985155  88.3175325 104.6062095  42.8693771
  87.3708390 104.5023165  42.7734423  88.6542749 104.5712224  41.9740486
  83.1320381  27.1209335   3.6207038  82.4112034  26.5030241   3.4990084
  83.3916187  27.0090365   4.5352152  63.5975504  34.4083786  32.7729607
  64.4006014  34.6427441  33.2381630  62.9134369  34.4476366  33.4413052
  21.6544723  95.9185136   1.4961489  21.5808343  95.0105942   1.7902452
  20.7488965  96.2132669   1.3998052  69.2692327  16.6544557  43.6460400
  68.3871746  16.3213956  43.8111925  69.8438931  16.0601819  44.1285753
  86.9900227  22.8214073  47.7875137  87.2803402  21.9095492  47.8091383
  87.0244026  23.0618167  46.8616343  81.0032654  35.0868177  27.9145861
  81.9139576  35.0049257  27.6314425  80.7867146  36.0065937  27.7617717
  75.0786209   7.2750640  55.2412415  74.8373508   7.4481368  56.1512232
  75.0991583   8.1393498  54.8303652  22.8550719  80.7394093  85.2337277
  23.1394385  80.6638544  86.1445833  21.9601248  80.3998631  85.2332670
  92.1817589  23.2946348  20.4351497  93.0070591  22.9567194  20.7828784
  92.4380302  24.0397525  19.8916852  20.9431195  11.4383256  38.3280325
  21.1456656  11.9896674  39.0838313  21.6739941  10.8222258  38.2782650
  91.2253666  16.6858089  21.6917562  91.8425274  17.2412014  21.2154341
  91.6112804  15.8107221  21.6527486  65.7246876  38.4478712  41.6073895
  66.2402439  39.2235899  41.8280506  66.2490034  37.9909325  40.9497166
  86.8797302   4.5863754  29.2877436  86.5550900   3.6934635  29.4041324
  87.2012806   4.6087411  28.3864450  69.6194363  56.6991615  21.5597534
  68.9908409  57.1268034  22.1413207  69.4018269  55.7686377  21.6145754
  64.2165136  42.6778173  38.9442682  64.3753433  43.6216402  38.9298344
  64.9602032  42.3025513  38.4727454  88.7781525  14.4992566  10.9549415
  89.3336010  14.7355449  11.6978252  87.9190445  14.8601127  11.1739039
  76.4336205   4.2372209  35.9509039  76.3136196   5.0673747  35.4897332
  76.8959904   4.4744447  36.7547488  74.9858618  22.7020431   4.4071931
  75.3764486  22.5143719   3.5537001  74.2446518  22.0995426   4.4690859
  93.4002781  27.5348711  57.3295832  93.4076500  27.5744677  58.2859373
  93.5579395  26.6127753  57.1268225  75.7531452  22.2581291  28.9320326
  76.6109610  22.2729254  28.5075736  75.8801079  22.7459502  29.7457528
  87.2496986  14.7197556  28.9008141  87.8341961  14.3126893  28.2613730
  87.5534821  15.6255114  28.9604306   1.3536502  42.1649790  17.0181000
   0.9666111  41.7873859  16.2282538   0.6533386  42.6956463  17.3978317
  79.4855881  30.1695895  41.1114311  78.6402082  30.2075911  41.5587807
  79.4236755  30.8343291  40.4254866 104.7643566  20.4602981  18.0285752
 105.1047802  19.5731723  18.1441271 104.7213364  20.5786228  17.0796919
  64.2430496  44.2395353  32.9641867  64.9319124  43.9558840  33.5652208
  63.7033653  43.4598875  32.8333449  88.5769463  37.7001071  22.7546978
  89.4036674  38.1252980  22.9826665  88.7928104  36.7690086  22.7028084
 107.0022297  21.9860220  19.2302907 107.5910568  21.3839102  19.6852326
 106.2700844  21.4376974  18.9482653  42.8341770  37.7660131  54.8644590
  42.6255846  38.4386659  55.5127335  43.6504555  38.0646849  54.4635582
  56.1396646   4.2056271  32.0716739  56.0925198   3.3276302  31.6933489
  56.6358232   4.7159031  31.4316154  96.2711334  38.0585146  45.0904942
  96.8591404  37.6179504  45.7039928  95.5158997  38.3107209  45.6217670
  86.8729496  22.9621887  43.6423922  87.2226429  23.6937952  44.1510153
  86.8147564  23.2983828  42.7480650  20.9005164  96.5076423  42.2134924
  20.7889508  96.8476821  43.1012726  21.0961866  95.5786539  42.3356628
  84.9046898  32.5014520  10.0972939  84.1491699  33.0728436  10.2348650
  85.6359959  32.9704332  10.4991436 103.4612274  24.7562551  36.0862064
 102.5176334  24.9103975  36.1320519 103.6963844  24.4481158  36.9614124
  60.2431440  25.6111884  48.9373970  60.6565332  25.6296706  48.0742645
  59.6771431  26.3830400  48.9484596  12.3093464   0.7642099  38.3600616
  11.7229511   0.0210254  38.2184458  11.7240669   1.5138033  38.4686422
 101.6753101  54.8347998  47.0932007 101.1265469  54.0505934  47.0827389
 101.4996052  55.2612925  46.2544727 112.6428604  70.9018660  18.4728551
 111.8804836  70.6943941  17.9325175 113.2995796  70.2531385  18.2196617
   8.1820010  96.5665835  90.1555296   7.6131724  96.8325251  89.4330785
   8.6410807  97.3681515  90.4064675  54.4851637  44.9412870  23.8494182
  54.0387678  44.5419502  23.1027627  54.9826193  44.2242098  24.2425752
  81.7578697  18.4035873  13.1737745  82.5128841  18.7305987  12.6846445
  81.5030766  17.6034784  12.7142751 111.5840244   8.0293983  32.6612186
 111.0546017   8.2700056  31.9009209 111.4516258   7.0861942  32.7564573
  82.3573208  71.9465876  48.1233120  83.1927109  71.5090179  48.2872677
  82.0687008  72.2429371  48.9865065  66.1182833   8.0872619   7.1253407
  66.7629719   7.7657193   7.7555954  66.0023403   7.3627961   6.5105748
  66.6441917   2.5100210  52.7912331  67.2056055   2.4229825  52.0208645
  66.6764593   1.6496733  53.2095528  62.1037579  47.7590275  17.9134727
  62.8565693  48.1058836  17.4347293  62.4197245  46.9405556  18.2962179
  50.1305246  37.2691727  53.5401773  50.9799433  36.8761897  53.3394670
  49.5084715  36.7856383  52.9965973  36.3961839 105.1260284  20.7984638
  36.5917157 105.7369339  21.5089536  36.8369817 105.4980673  20.0345802
 104.2320538  22.8482509  45.4054499 103.5613441  22.4558592  45.9643888
 105.0539494  22.4662900  45.7133818  82.5350857  31.0386777  39.8473001
  82.8874874  30.3872800  40.4537058  81.6195679  31.1383176  40.1082993
  62.9667902  23.4447694  52.8154087  62.9965067  22.6029634  52.3607540
  62.9520273  24.0955997  52.1136713  99.6940517  60.1899338  47.8262901
 100.4788589  59.7641897  47.4812460  98.9776421  59.8335457  47.3009634
   6.5210150  63.5046702  79.3586457   6.4026736  62.6456504  79.7640002
   7.2953795  63.4036791  78.8051212  66.9700766  39.5033360  15.2169955
  66.2963295  39.9026704  14.6666980  66.8036175  38.5627699  15.1548719
  58.3251810   8.2735002  48.1502724  58.4646988   7.5157386  48.7182188
  58.9468908   8.9284384  48.4677076  50.9191465  22.8805733  49.1328335
  50.7963562  23.6795712  48.6202335  51.2930727  23.1822371  49.9607277
  99.4617653   9.9602705  51.9352388  98.6343956   9.6802056  51.5437746
 100.1328182   9.6359193  51.3346434  98.4856033  45.4573011  12.8050601
  98.3356285  46.1154461  12.1263993  97.6761246  45.4512358  13.3158815
  93.8912773  59.6811247  15.4154992  94.5968819  59.1873360  15.8332610
  93.0947971  59.3730879  15.8478904  58.6775446  38.5209751  22.5125098
  59.3704224  39.1796923  22.5598454  58.5869932  38.3353424  21.5778589
  82.0691013  47.3120117   7.7824855  82.7807140  46.9519329   8.3118105
  81.3343525  47.3909855   8.3908737 102.2710991  21.2095165  28.4036469
 102.5117970  21.2245607  29.3299675 102.8948402  21.8023396  27.9844451
  84.2878151  21.2997413  18.9619517  84.9331665  21.9039845  18.5950255
  83.4483624  21.6115713  18.6238408  80.2035809  21.7322826  34.3973207
  80.5846405  21.8082762  35.2721047  80.5441666  20.9042454  34.0588140
  87.3448372  26.3174748  20.0144005  87.6926613  25.4318810  19.9096799
  88.0826473  26.8264174  20.3503227  74.5346212  33.0248332  22.4288177
  74.7092485  33.2769179  23.3355641  75.1145363  33.5817885  21.9094586
  77.4870777  23.9033508  35.2828431  77.3900986  23.1948686  34.6465421
  77.6941681  23.4598279  36.1054206  32.8413726   6.9572371  31.1188817
  33.5286476   6.6865194  31.7276454  32.0248081   6.7229611  31.5599823
  70.9658527  41.8236923  22.7956200  70.8482361  42.3845005  22.0288777
  71.8685198  41.5123892  22.7284694  79.6830988  22.9996586  15.5992770
  79.4103432  23.5208631  14.8441732  80.1634312  22.2631550  15.2210236
   8.7743806  97.4716604  56.6742468   8.3920240  96.7455030  57.1669245
   9.4977140  97.7777219  57.2213697 112.4578667  44.6596098  32.0591903
 112.5533009  45.4806852  31.5765357 113.2707310  44.5792580  32.5582218
  80.0871468  24.0160275  20.3810024  79.4972134  23.2637024  20.3338432
  79.5319939  24.7688246  20.1776743  80.2634048  18.4633040  84.6049118
  80.6117058  19.0567338  83.9395046  80.4291725  17.5877571  84.2553806
 106.8836117   4.8462379  33.0341697 107.3991585   5.2950358  33.7042570
 107.5287247   4.3577817  32.5228381  63.8031721  18.1225562  47.6876974
  64.7258759  18.1581223  47.9398584  63.3384180  17.9415143  48.5046768
  98.7435055  38.0058384  29.3405581  98.0255604  37.7787685  28.7496090
  98.4904194  37.6260138  30.1819324  84.4800758  42.0649052  66.2342405
  85.2362633  42.6079130  66.0116243  84.3915176  42.1550179  67.1830654
 103.6241531  30.9521031   9.7362381 103.6662006  30.9031844   8.7812144
 102.6893330  31.0160589   9.9318564 112.4506664  75.3310442  37.1503305
 111.6157436  75.5202675  36.7221642 112.8249359  74.6136808  36.6389179
 101.1966133   3.1929156  39.5590639 100.4109573   3.5328290  39.1307735
 101.7696953   2.9338461  38.8374782  84.7712326  21.5422940  42.7803946
  85.1114941  20.9169722  42.1405315  85.5509186  21.8909860  43.2125378
   7.9113247  45.9730911  35.1156902   8.2263805  45.0752258  35.0117159
   7.5638725  46.2062073  34.2547822  14.5265340  66.8766451  25.1898718
  14.3070363  67.7558184  25.4982662  13.9565753  66.7389775  24.4332814
  73.8875484  29.6119070  40.5599451  74.3670321  29.4804573  39.7419906
  74.4209623  29.1740847  41.2232780  10.5900572  73.1096368  88.8114402
   9.6356486  73.0493312  88.7702582  10.8733462  73.0510598  87.8989980
 106.2049389  53.7029600  13.4170747 106.8881035  53.1087875  13.7276852
 105.3951454  53.1986427  13.4953392   6.7232849  34.3022776   6.2574857
   7.2015430  34.0773797   5.4594123   6.9858982  33.6339855   6.8904555
  87.4328423  36.4687943  30.6766844  87.1722603  35.8488870  31.3578963
  87.8045845  37.2091937  31.1561012  79.8207331  23.4443736  40.2016830
  80.1154232  24.3208528  40.4490185  80.5628967  22.8755403  40.4062700
 105.1170063  17.8127408  63.2534695 104.2370701  17.8162277  63.6301947
 105.0798893  18.4631753  62.5521898 100.5993080  36.3727140  59.3523932
  99.8359776  36.9466925  59.4165611 100.5530643  35.8242440  60.1355124
 111.6636562  13.0158997  58.0162954 112.0663929  12.6335204  58.7959242
 112.3970890  13.3854699  57.5246286  62.1119118  23.1566787   1.7400871
  61.2187672  22.8147721   1.7804039  62.5069857  22.7070975   0.9930754
  79.9005985  29.9859691  33.2512498  80.3768539  29.5012069  33.9253569
  79.7135019  29.3348074  32.5750756  95.1088715  30.8148837  28.5780358
  95.3877544  30.5913067  27.6900768  94.1971970  31.0898542  28.4806633
  92.7497578  17.5976264  24.3791676  92.5579262  17.3735178  23.4685588
  92.6649761  16.7699730  24.8524880  36.9092416 104.2516661  31.9750977
  37.7398967 103.7826172  32.0540833  36.9161176 104.8749483  32.7015305
  72.7646971  44.4718552   3.3914962  73.1494617  44.5114803   2.5159293
  73.2320547  43.7586737   3.8264444   6.4093162  44.2198706  17.8244078
   5.5094101  43.9723110  17.6119852   6.9413807  43.7818241  17.1601450
  11.3294600 103.9702528  82.7183748  10.9567545 104.8240488  82.4984742
  11.4076136 103.9815443  83.6723113  91.7354012  12.7155125  38.1041980
  91.1457253  13.4680736  38.0577111  92.1082211  12.7573967  38.9848113
  77.0469570   6.5949696  34.4900489  77.3716116   6.2730032  33.6491132
  76.5698338   7.3956037  34.2719388  57.7218866   5.0285649  70.8904743
  58.5825920   5.4439491  70.8368540  57.2737408   5.4962057  71.5952492
  85.2338886  32.2157574   1.9571275  85.7593822  32.1268797   2.7522328
  85.7441330  32.8006291   1.3969418  57.3489427  93.9526022  55.7105017
  57.7179956  94.6833194  55.2144337  57.0543718  94.3454421  56.5321684
  59.5670461 102.1766911  33.0704069  59.9343061 102.8894359  32.5475812
  59.6177243 101.4100963  32.4994469  45.8386326  22.0246077  42.3506737
  45.6451559  21.2123132  41.8827248  46.7602968  21.9455981  42.5966883
  67.3170090  22.5297046  43.2359028  66.7463350  23.0664921  42.6859760
  67.7207994  21.9097233  42.6286030 103.9757633  73.4389400  36.3745117
 103.2909584  73.9220428  35.9120369 103.9964771  72.5833559  35.9458160
   8.8091457  29.9778509  28.2554913   8.8299400  30.6496406  28.9370322
   9.1632450  29.1959071  28.6790562   7.6546051   7.7179551  12.1505892
   7.4947979   8.1047195  11.2897122   8.3337165   8.2696778  12.5387084
  75.7924652  44.3998432  30.0224519  75.9738111  45.3258038  30.1834989
  76.6570234  43.9964294  29.9448299  97.1224403  36.9197536  20.0287294
  97.4795914  36.3840079  20.7370019  96.7175388  37.6648068  20.4727864
  79.2931795  31.4782214  37.0796394  80.2180672  31.2346148  37.0413184
  79.1776657  31.8427300  37.9571486 111.4292812  23.2082105  37.6881647
 112.2167206  23.3047104  37.1525741 110.9306622  22.5135565  37.2579741
 105.9958553  37.2556853  28.6325336 106.2200451  36.5144992  28.0698466
 105.0473690  37.3470473  28.5417271 110.8077621  36.3885880  12.9633880
 111.6315842  36.8437886  13.1375742 110.6770802  36.4825058  12.0198131
  73.1903315  19.6464336  60.9182644  73.6432981  19.1073143  61.5666485
  72.3259258  19.2440259  60.8339643  97.7167988  47.7143717  23.0620408
  98.4153557  47.4167919  22.4792027  98.0307102  48.5513687  23.4042859
  54.5750237  23.3453465  50.1919603  54.8535395  22.4296737  50.2061272
  55.2665901  23.7986135  49.7097588  91.3822460  65.5491066  51.4643240
  91.6492844  65.2666903  52.3390627  91.7401218  66.4327049  51.3782549
  67.7595376 100.8685923  45.5308437  68.5045003 100.6586737  46.0940409
  67.3388623 100.0247920  45.3657007  92.0321274  40.2741146  56.2079954
  92.2846699  39.6598816  55.5186653  92.7712345  40.8789253  56.2724400
  59.8520565  43.0605650  31.3564754  59.2658091  43.0105352  32.1114850
  59.2718506  42.9952049  30.5979753   5.9992312  66.8419283  82.0713663
   6.5195845  67.0481377  81.2948728   5.1161001  66.6905826  81.7346120
  55.1550198  10.6215155  13.8004911  55.0379467  10.9694445  12.9164827
  55.9822559  10.9994113  14.0990090 103.7501431  45.5572224  55.5122709
 104.6057987  45.6705284  55.9260798 103.3823204  46.4402246  55.4770279
  12.9234745  99.3116856  66.2026024  12.3450805  99.1377163  65.4600191
  13.7921383  99.0521336  65.8955479   5.0872947  61.5517998  46.1463594
   4.8442985  62.4326468  45.8612442   5.1042606  61.6055059  47.1019030
  77.0495796  38.7906218  18.8843930  77.9415035  38.4919524  19.0618777
  76.9337511  38.6535859  17.9441607   3.9601471  54.5974159  28.0588388
   4.7431614  54.1210938  27.7827501   4.0964367  54.7619677  28.9918852
   6.1972572  36.6084909  34.4230747   6.9874813  37.1422791  34.5058274
   5.6917335  37.0346785  33.7309456  68.4437609  33.5700154  33.8807631
  68.4586859  33.4310269  34.8277020  68.4743023  32.6885724  33.5087991
  92.4627209  25.0982761  38.9656162  93.1825733  24.5166564  38.7211633
  92.6337814  25.3194070  39.8810768 104.6147537  59.2182159  11.8046319
 104.1399860  59.4576931  11.0087168 105.5382156  59.3005991  11.5666163
   2.7191116  23.6186671  31.6540504   2.5123836  22.7826619  31.2362123
   3.5570766  23.8773894  31.2704921 106.9986725  35.7338309  37.2605419
 107.1327209  34.7960138  37.1235681 107.8190708  36.0389733  37.6479292
  92.1367645  24.7887349   5.2255338  92.3441124  25.3753281   5.9529573
  92.3949623  23.9210463   5.5364686  68.1643438   5.4289262  89.2987877
  67.5719976   5.2721517  88.5634140  68.7219381   6.1504047  89.0075901
 102.7947998  45.5765390  17.7787948 102.7597713  46.0052156  16.9236684
 101.9435596  45.7626104  18.1750393  67.8615808   5.6468797  35.6545734
  67.3708630   5.2594274  36.3793564  68.7794495   5.5522752  35.9091353
  99.3754005  55.0707626   7.7962965 100.1623154  54.6766281   8.1726640
  98.6613369  54.5024443   8.0850071 103.5595608  47.1263266  66.6572142
 102.9785824  47.8479290  66.4164209 104.0870571  46.9718266  65.8735609
  96.0559177  53.3533382  46.4963198  95.5016136  54.1002131  46.2701321
  96.8515301  53.4803391  45.9795094 108.6927605  70.3457308  10.7451034
 109.6075344  70.5415058  10.5423915 108.3229160  71.1853600  11.0179865
  57.4825478  62.8339624  20.5289960  57.0511341  63.6618185  20.3174186
  56.8328094  62.1640491  20.3161860  10.8557941  55.4318857  41.6527700
  10.9226944  55.7260323  42.5611925   9.9982025  55.0099897  41.6001606
   4.2010452  81.0958767  45.1384592   3.2879020  81.2420177  44.8913908
   4.1816284  80.2972317  45.6657314  68.8096380  26.1444616  54.5427942
  68.5784340  27.0660138  54.6590662  68.2342148  25.6751156  55.1468134
  62.5712728   0.7817667  89.3114987  62.6136922   1.6551130  89.7009796
  62.3921727   0.9412210  88.3848214  96.9660424 105.5165391  45.1434278
  96.0205125 105.6598043  45.1025343  97.1627568 105.4817911  46.0795498
  91.5664387  61.4450788  58.3406591  91.6341686  60.5090857  58.5292387
  90.8724403  61.7568302  58.9215326  67.3498297  44.0218353  38.9751101
  68.1005001  43.8951349  39.5553493  66.9295931  44.8190403  39.2977381
  -0.1286267  41.2764835   3.7281790   0.2197982  41.6901159   4.5179510
  -0.0895832  41.9622421   3.0615118  93.0972767  18.4132671  32.4903011
  93.1965828  18.8182735  33.3518910  93.7104607  18.8889194  31.9299459
   6.7143915  95.2697294  86.3459438   6.7611216  96.1355274  85.9404278
   5.8872698  94.9031561  86.0333246 110.5472851  21.7274094  26.6253924
 110.1841354  21.1321473  27.2811484 110.9460258  22.4319458  27.1361423
  83.5029030  75.2158213  62.1034098  83.6497974  74.2805624  61.9621658
  82.5585461  75.2920103  62.2398853  69.1476870  60.2648830  25.9209490
  68.6445856  60.4413033  25.1259661  69.4898796  61.1197138  26.1824846
  97.3993874  75.4309130  33.3227444  96.5807343  74.9361324  33.3577585
  97.4539757  75.7399607  32.4184537  72.7581501  47.2985601  19.9491215
  71.8722010  47.0520687  19.6834731  73.2919788  46.5309668  19.7440290
   1.1956455  51.5677547  50.8435869   0.7379009  50.9363747  50.2885532
   1.3292457  52.3296547  50.2797699 107.4944019  53.6244392  10.9178162
 107.0967484  53.7144327  11.7838418 106.8247700  53.9429283  10.3125143
   0.4872943  38.3966494   7.7138811   0.6086113  39.2773485   8.0686831
   1.3743450  38.0454493   7.6361716   5.3964855  50.7318974  19.6724212
   5.4042579  51.4690256  20.2830100   5.1127197  49.9860334  20.2009940
  46.4001702  27.1068971  72.6903820  45.8431958  27.8783624  72.7944696
  46.8539571  27.2494142  71.8597210  88.4118557  21.3996029   4.7158861
  88.0503368  21.8612170   5.4724896  88.8127804  20.6125212   5.0846535
  99.1398621  43.5256481  10.9853804  99.2466068  44.1647005  10.2807891
  98.8900661  44.0485764  11.7472064   0.5608417  52.9636192  67.5521278
  -0.3388642  53.2665968  67.6744604   1.0977127  53.6247778  67.9890203
  84.7576237  57.2557259  33.7914157  84.9322796  56.7241812  33.0147624
  83.8319874  57.4885178  33.7191200 100.9030724   9.2964178  28.1257010
 101.0902023   8.4564120  27.7066493  99.9474144   9.3408942  28.1568885
  72.2763776  17.9230850  91.3840913  72.1790742  18.8116138  91.0416174
  73.1961774  17.7068059  91.2310551  77.6868439  29.8064089  44.8083735
  77.2191715  29.7395802  43.9758778  77.0488834  29.5261621  45.4646492
   1.6535236  32.6226044  56.6445255   2.2339584  31.8915725  56.4325714
   1.7407180  32.7308655  57.5915766 112.2804642   1.5715845  32.6641226
 112.2912121   0.6213837  32.7791667 112.9331875   1.8953994  33.2848644
 103.4704494  62.6492167  16.7937469 103.3274460  62.8253984  17.7236593
 104.0172005  63.3753538  16.4937150  71.6549206  57.0053339  24.9568677
  72.1279144  56.1809397  24.8433614  72.1505022  57.6391649  24.4383216
  77.6899624  88.3955193  37.1056652  78.2895136  87.8530693  36.5933013
  78.1225491  89.2478561  37.1569395   6.8100642  97.4434250  82.8393084
   7.1122359  98.2601421  82.4419451   6.6923426  97.6566570  83.7650001
  99.9335766  37.2009850  68.5479021  99.9301434  36.2869453  68.8320684
  99.1003704  37.3126173  68.0901480 102.4313927  35.7162571  43.5295582
 102.2826862  35.7887602  44.4723558 101.5597630  35.7984304  43.1425953
  59.4442987  21.9494026  86.3506711  60.1793336  22.4493520  86.7056585
  58.6684751  22.3617475  86.7305202 101.1979771  58.8060045  84.5666599
 100.2442360  58.7429094  84.5154858 101.4059067  59.6393442  84.1441250
 108.4451866  23.1272793  17.2447729 108.0367947  22.5296712  17.8711236
 109.3517590  22.8264284  17.1828020 100.2371597  38.5162163  43.7713957
  99.9452496  38.4425735  42.8627682  99.8344517  37.7689123  44.2136526
 112.7353477  73.3551741  34.3795729 111.8638515  73.1545544  34.7208548
 112.9790592  72.5796223  33.8742423  88.2791996  50.6310844  24.8130727
  88.6714363  50.0058651  24.2035794  88.0416298  50.1046276  25.5763793
   4.8415042  29.3105125  24.7307754   4.5734836  30.2244258  24.6350551
   5.4671146  29.3189979  25.4551840 109.7033405  38.6432099  29.7296286
 109.0510082  38.5995340  30.4287672 109.3541908  38.0778813  29.0406203
  65.4698133  66.9837570  12.1276331  66.1165142  67.6148081  12.4435210
  65.3122473  66.4075422  12.8755510   0.7003547  48.6388588  52.4622726
   0.3788711  49.2382288  53.1358004   0.8294345  47.8091717  52.9218292
   6.8498184  37.6051378  28.4982514   6.3500644  38.3879852  28.2666731
   6.2563469  37.0970225  29.0512848  76.0608482  62.8166151  26.7015386
  76.3033295  63.6519146  27.1011758  76.8569660  62.5229645  26.2585950
  10.2066661 102.4360466  44.5152092   9.8650028 102.6785851  45.3758335
  10.8370163 103.1250095  44.3049097 107.0377299 103.5107916  87.0183677
 107.0296141 104.3285244  86.5208924 106.3551137 102.9766052  86.6122735
  84.8014259  57.4700594  26.7812037  84.8446274  56.5321922  26.9676948
  85.4964256  57.8529692  27.3165488  94.5916268  89.6261423  87.0833850
  95.2044913  90.3284281  86.8656224  94.5682809  89.0770548  86.2996811
  51.6315222  23.1822157  35.2767253  52.4769640  22.9656601  34.8835802
  51.1640501  23.6598635  34.5914841  97.8827667  64.5686197  31.1665368
  97.2805023  65.2322292  30.8301926  97.3143005  63.8596773  31.4673328
 108.2373905  46.5931225   1.1089879 108.3470535  47.2970247   1.7483047
 108.8862610  46.7820072   0.4311100  91.6353989  44.9063969   5.9688997
  92.2599316  44.8158932   6.6886216  91.5809059  44.0301752   5.5874604
   4.7317554  51.1041260  56.6474628   4.1815807  50.3525305  56.4269209
   5.2297165  50.8197546  57.4138832  62.1099710 105.0473913  41.0943794
  61.3491010 105.3530974  41.5881968  62.0881700 105.5542975  40.2827120
  77.1546125  60.3531694  12.6826644  77.7982235  59.6451664  12.7098250
  77.5586271  61.0633802  13.1812668  53.9549016   4.9975173  91.1157729
  53.6535501   5.7139604  91.6744525  54.1338491   5.4112546  90.2713614
  93.6504459  24.0763807  35.9240532  94.0824223  23.6410093  36.6589546
  92.7246571  23.8552809  36.0252905 111.9515610  50.2950525  48.8082552
 111.0491753  50.2216148  48.4975386 112.4061012  49.5580959  48.4001923
   3.7406780  17.0506740  62.3402691   4.4114830  16.5977895  62.8513002
   3.4809734  16.4172924  61.6712284  79.6882582  31.8536544  31.3734984
  80.5694866  31.6649008  31.0509443  79.5526743  31.2244940  32.0820236
  87.9660130  65.5630732  19.1824079  87.6435184  66.1679602  18.5143197
  88.0108070  66.0895109  19.9805832  19.2243053  24.7371387  37.3087454
  18.5864402  24.4979692  37.9811740  19.9038841  24.0661931  37.3738098
  40.2200939  39.7217441  15.0026727  41.0688926  39.8745131  14.5874238
  39.9607898  40.5791187  15.3401625  32.0067646  96.4211845  23.3525181
  32.6246978  96.3001060  24.0734482  31.9980194  95.5775738  22.9003239
  77.0257044  53.1435680  25.7602310  77.9729319  53.2565689  25.6813550
  76.7859554  53.6609983  26.5290093  -0.2161644  66.0992718  67.3095226
  -0.2871846  66.8082714  66.6703749   0.5717994  66.3074112  67.8115416
  89.0150928  48.5909224  22.9107809  88.4811497  47.8009272  22.9946947
  89.4037342  48.5257959  22.0384574  82.6858711  10.1250947  38.4242082
  82.8785419   9.2448908  38.7472486  82.8554058  10.6973195  39.1725755
 105.8861542   1.2852924  57.5282288 106.0807705   2.0855032  57.0403576
 106.1830330   0.5777192  56.9560146  93.2785892  17.6063228  13.2305396
  94.0712452  17.8071868  12.7329648  93.4237862  16.7214334  13.5653841
   1.5447475  74.3156767  44.5044518   1.6366626  74.0768385  43.5820961
   0.6661274  74.0194511  44.7421646 106.0117149  14.0518832  62.4639702
 105.5771828  13.2085586  62.5913382 106.1437130  14.1128302  61.5178728
  47.9653978   6.5266728  13.4516239  47.4802494   5.7117510  13.5811067
  48.1828451   6.8191808  14.3367147  90.4179192  18.6061287  34.3772650
  90.2937794  18.6519372  33.4292531  91.3122177  18.9174676  34.5170379
   2.2621013  15.4961157  60.1796389   1.3588096  15.7702231  60.0209904
   2.2269584  14.5395911  60.1721191 104.3589211  27.1745825  60.3715134
 104.4093418  26.7803407  61.2422943 103.6223507  26.7315578  59.9503040
 111.0138607  28.6584330  32.7163148 110.7976913  28.9749146  31.8391919
 111.6053772  29.3219852  33.0713367  80.0260544  24.1929221  28.8414168
  79.3144941  24.7960091  28.6264729  79.7169638  23.3396363  28.5371256
  95.0159264  46.6753292  38.8832784  94.4939899  47.0976543  38.2010317
  94.9716187  45.7420111  38.6754727  16.9560482  59.1488457  81.0133076
  16.3065292  59.5044279  80.4067421  16.5800621  58.3192062  81.3075256
  86.4795113  43.8480663   1.8215078  87.1043205  43.1237841   1.8570136
  86.8361759  44.5017576   2.4229297 103.3662701  59.5234585  33.8198352
 103.8231182  58.8773251  33.2812858 103.9411354  59.6565294  34.5735335
  64.2475175 106.4421600  37.2771835  63.7814664 105.6478735  37.0161533
  64.4786500 106.2938361  38.1941414   5.2826740  26.6623902  28.8836217
   5.8325054  26.0123539  29.3210793   4.5371582  26.7806125  29.4722390
 100.3448009  29.7244835  65.6768370  99.7195816  29.4053769  65.0260639
 101.1847496  29.7331977  65.2178860 102.5164986  31.0033274  37.9533482
 102.2940445  30.1188636  37.6627135 103.2476807  31.2628388  37.3927569
  15.6023647  60.6395388  63.0385780  15.1736690  61.2860680  62.4778175
  16.5371849  60.8215904  62.9426432  56.7643213  51.1176682  24.6730018
  57.4113798  50.4272699  24.8175859  55.9268522  50.6560326  24.6309304
 100.0483322  22.9014063  17.4561095 100.7948112  22.3246312  17.6183689
  99.7094154  22.6210785  16.6059434 105.6517982  47.9156017   8.1795096
 105.1474762  47.5742006   7.4410421 106.2029648  47.1822119   8.4526145
  86.9035625  18.7273276  22.7697873  86.0879326  18.3318067  23.0772758
  87.5692844  18.0583632  22.9295707  80.9132481  34.8655176  30.6872272
  80.8986664  34.9224043  29.7318292  80.0121403  34.6505570  30.9281421
  32.4707462  60.0038242  81.4304352  32.5478508  60.8904552  81.7828178
  33.2698013  59.5617390  81.7173290  86.8551540  36.1599731  37.7878881
  86.4208984  35.3978419  37.4047351  86.7171288  36.0656142  38.7303710
  93.7076092  76.7015839  22.2973919  92.9830360  76.2687540  21.8458581
  94.4249630  76.6914177  21.6637325   6.6745235  31.5516782  31.6170335
   6.2481453  31.4831209  32.4712777   6.7544414  30.6465983  31.3159084
 102.3834133  43.8523149  32.4133134 102.4767113  44.7723961  32.6602340
 101.9573498  43.8762856  31.5565014  31.8507956  95.9801214  82.8077633
  32.6603030  96.3022631  83.2041872  31.6486834  96.6182869  82.1235669
 102.0564079  81.9198990  29.6865916 101.8176746  81.6420174  28.8022709
 102.2943211  81.1091423  30.1363754   7.2055580  57.8949738  48.2212591
   6.4420559  58.4352922  48.4246063   7.8066303  58.0454445  48.9508486
 105.4812050  57.9661369  18.4791565 105.2883053  58.1390095  17.5576711
 104.6229553  57.8414011  18.8842130  89.7273350  63.7266254  28.2194066
  89.5826530  63.4075594  29.1101885  89.4381237  63.0076694  27.6575422
  59.7189856  47.3445845  27.5538588  60.2969837  46.7690802  28.0548024
  60.2633858  48.1016827  27.3378420 110.2082729  73.1025505  35.3939128
 109.7790051  72.6712227  34.6550512 110.2144337  74.0304422  35.1589441
 111.9648266  70.2549505  22.2519803 112.5284576  71.0025883  22.0530128
 111.8925190  70.2568245  23.2064438  94.4530392  68.8384008  32.3209620
  94.1291142  69.3294764  31.5658808  95.3017616  69.2346430  32.5181961
  25.8636142  47.7834797  40.6402159  25.8086158  48.3282757  39.8551011
  26.7837478  47.5239992  40.6877136  18.9216758  84.7879124  21.2870860
  19.1510250  85.3704166  22.0111847  19.0301277  85.3262234  20.5030656
 107.4513340  88.9459038  24.3537998 108.2949352  88.4936523  24.3596125
 107.1814346  88.9611816  25.2720308 101.2156105  38.2643843   3.6999124
 101.8364716  37.8911328   3.0742520 101.7601204  38.7625194   4.3095025
  38.1550647  88.0522537  29.6918082  38.3036949  87.1656609  29.3630123
  37.9761459  87.9348469  30.6247807 106.0415936  28.9807320  26.9149327
 105.8289623  29.5317435  27.6681972 105.2749634  28.4180570  26.8057752
 101.7437840  67.6170301  40.1518822 102.2606945  67.9543114  39.4202542
 102.0780849  66.7312956  40.2931070  22.2065498  28.2345128  57.2357464
  22.5954391  28.7987256  57.9040718  22.0681144  28.8124418  56.4853668
 110.0994015  66.0243988  44.8519182 110.9492493  65.6394053  44.6379948
 109.5936680  65.2994394  45.2192020  14.9791576  52.5542068  69.6851492
  15.0148727  53.4947205  69.5108318  14.1798259  52.4358988  70.1982832
   4.3494369  13.1216025  21.0042596   3.6083938  12.5294113  21.1322999
   4.1243412  13.9004469  21.5131450   4.8757888  62.5227451  13.4095788
   4.5345832  61.6687202  13.6750019   5.1819946  62.9219389  14.2238986
  91.4018822  87.8668022   8.8417840  91.4330959  87.4577618   7.9769492
  91.7510796  88.7471771   8.7030900   6.0493232  63.7994766  27.5510311
   5.9429313  64.2377090  26.7067170   5.2143814  63.3546925  27.6969099
  15.9892894  70.0248766  39.8270631  16.0657169  69.1534042  39.4385767
  16.8597843  70.4097080  39.7251987  67.5267887  93.7660599  62.5273371
  67.5197315  92.8958416  62.1286917  68.1321335  93.6868763  63.2645750
  34.9843933  50.2176952  23.7626863  35.9056903  50.4656887  23.8397646
  34.5449974  51.0163736  23.4706783  68.4963750 102.3927847  12.3300600
  68.2635736 102.4297229  13.2577837  67.6574849 102.3162160  11.8754816
  24.5821525  72.4036026  23.5351968  24.7935630  72.8651237  22.7236915
  25.0001766  72.9230165  24.2220044  76.4056443  19.5212095  84.9125541
  77.0087098  20.1460855  84.5099736  76.7364835  19.4091861  85.8037490
  81.2511921  28.5760736  55.6157064  82.0781422  29.0498018  55.7049704
  81.1382771  28.4671474  54.6714544 104.2396164  15.8197033  14.1249859
 103.6559868  15.1733994  13.7276137 103.8940239  15.9429395  15.0090718
   6.4098693  35.7504082  15.5744934   6.2072803  36.0219574  16.4697301
   6.9920112  36.4340138  15.2427852   0.7224609  62.2821045  23.8506770
   0.3587581  61.4130878  24.0202737   1.4201786  62.3803568  24.4985747
 104.1141891  75.4245615  17.3300171 103.8912964  74.5112896  17.1497715
 104.6665859  75.6861639  16.5933633  88.7070274  56.4523697  22.5964928
  88.6677361  57.4069357  22.5373864  89.5686722  56.2259865  22.2464252
   0.4186203  87.2319221  45.6658173  -0.1754521  87.5588322  46.3414240
   0.3554966  87.8751278  44.9597406  37.0956279  72.2749233  26.4529967
  38.0235912  72.3164320  26.6840768  36.7721798  71.4928865  26.9002390
 110.0051785  14.1926980  43.8195562 110.8432484  13.7307000  43.7986183
 110.1115513  14.9101913  43.1949615   1.4289047  59.5789003  22.2324824
   1.5770389  60.4724550  21.9228816   1.5814830  59.0304184  21.4629912
   4.3682720  65.5919361  15.7562244   5.1387550  65.0242043  15.7721579
   3.6257412  64.9891472  15.7953763   9.8378708  37.5618052  17.7355528
   9.7468998  38.4681964  18.0295098   9.1545726  37.0868707  18.2086003
 101.3792515  42.0188999  45.1024628 101.0052204  42.0113087  45.9835291
 102.0227242  42.7272844  45.1215219  86.0350990  84.5586014  27.2200966
  86.6100121  83.9100742  27.6264334  85.1711655  84.3785000  27.5907850
  73.4165049  55.4750729  12.5444496  73.2136679  55.0856972  13.3950233
  73.7216616  54.7408152  12.0115554 106.5845585  20.0595450   5.2850884
 107.1788692  20.3568149   5.9740442 106.3861847  19.1518176   5.5151105
 112.9854393  52.8421688  30.9184766 113.2797813  53.5500813  30.3453708
 112.0374203  52.8088522  30.7904601  15.2390434  67.3568583  29.2829561
  14.7129585  66.9982195  29.9976850  14.8485614  68.2122707  29.1039991
  81.7723083  76.1058617  51.7721891  82.3487854  76.8585491  51.9039822
  82.2548008  75.5367231  51.1725903  71.9499826  70.4863882  18.6598969
  72.1689987  69.5940161  18.9281070  71.9051170  70.4451752  17.7046371
   3.2742359  27.2495437  18.4157193   2.4085666  27.2356319  18.8239622
   3.6696102  28.0663037  18.7203634  97.3725986  42.5007534  38.5361576
  98.0290031  41.8372154  38.3238602  97.8768063  43.2289267  38.8991523
  96.0773563  51.2525129  20.2752948  95.9118652  52.0405006  19.7576869
  95.2082157  50.9574080  20.5468440   7.2891619  85.0323803  16.5240681
   6.6293147  84.6270092  15.9614765   7.9187777  84.3325431  16.6973793
  85.4362011  47.8422928  63.4884119  84.7928810  48.5023451  63.2301474
  84.9143314  47.0664501  63.6932278  62.8139877  75.4032135   9.6904254
  62.8875208  76.3575792   9.6868247  63.4645939  75.1152802  10.3307652
 103.9807129  47.5567245  28.9990807 104.5696354  46.8068552  29.0833354
 104.0795231  47.8378630  28.0894494  82.6635838  64.6025658  38.4727287
  83.2661343  65.2846289  38.7692976  82.5619602  64.0267086  39.2305517
  87.4305534  96.8042469  36.8261838  87.8452110  96.8988800  35.9686685
  87.6513863  97.6122093  37.2894931  86.0111904  52.5373173  29.0544701
  85.7356739  51.7834949  28.5328603  86.8682575  52.7736425  28.6997604
  93.3843517  45.0682116  42.8706312  92.7596664  45.1990461  42.1572685
  93.8375282  45.9076786  42.9491282  73.9271878   8.9749925  80.6471563
  73.2591104   9.0308063  79.9639404  74.3290185   8.1156366  80.5195856
  91.6139507  45.2470255  46.7297459  91.5313816  45.5261230  47.6416206
  91.2651443  45.9799528  46.2224150  82.2930908  52.2176981  37.5659013
  82.0433998  53.0518961  37.9633999  81.9568253  51.5548277  38.1690311
  96.4075661  50.1225185  59.2652321  97.2140503  50.6361961  59.2210245
  96.6131878  49.3131161  58.7974453  80.7605648  60.7952356  46.8325520
  79.8508787  61.0907125  46.8698883  81.2021065  61.4474392  46.2885809
   8.5197593  51.7540550  28.7289405   8.9008667  52.2306633  29.4663882
   8.8533355  52.2057390  27.9537392 108.7500381  40.1311827  55.5508995
 109.4200611  40.0860023  54.8688030 109.2418575  40.1070166  56.3717270
  74.8489285  37.7175045  12.3581111  75.0017023  36.7907810  12.1735132
  74.4856167  37.7286148  13.2436109  96.6399860  73.5022116  72.5612974
  96.6801357  74.2891073  72.0177841  95.8899689  73.6474848  73.1380224
  80.2061272  66.9559431  59.7772932  81.0811806  66.6795397  60.0495386
  79.7848034  66.1520433  59.4732189   9.6334507  23.9617205  23.0850816
   8.9818050  24.0297413  23.7829113  10.1735450  24.7457170  23.1844759
  78.8225031  27.2771764  28.4063792  79.1121769  28.1116295  28.0375838
  78.6309195  26.7317581  27.6434588  98.8574409  44.5999718   8.2933688
  98.7056732  44.8514795   7.3823577  97.9973888  44.6700478   8.7076509
  74.6091794  15.1003616  78.5029590  74.7261190  14.4826190  77.7811897
  74.1664457  15.8507793  78.1066013  24.2312767  97.0655823  38.6999321
  25.0696518  96.6886425  38.4329557  23.7574531  97.2011280  37.8793526
   8.7250949  51.2993336  10.5412567   8.2027008  50.5384398  10.7949901
   9.4507839  50.9337187  10.0353622  16.8773414  89.9159622  43.1022835
  16.7956592  89.4624805  43.9412785  17.8196766  90.0378704  42.9866600
   8.3561279  57.6300383  55.8850002   7.4907924  58.0200624  55.7612658
   8.8434936  57.8738928  55.0980806  91.9332218  66.2213612  42.8925991
  92.5624275  65.7331800  42.3615408  91.3729572  66.6630650  42.2544527
  52.3454665  98.9780205  91.7422803  52.9084109  98.2097881  91.6466455
  52.5496767  99.3176191  92.6136031   3.6310722  56.2561703  48.2349586
   3.2307674  55.4632759  47.8781605   2.8938915  56.8452549  48.3955002
  97.7055264  94.6923542  18.3510947  97.0400238  94.1945362  18.8259768
  97.4970436  95.6080723  18.5360837  70.8946609  17.1356225  21.9607186
  71.5756941  17.4389243  22.5610805  70.5011559  16.3844550  22.4047184
  83.3336639  66.4461184  28.6343455  83.6134529  65.5342960  28.5535216
  84.1286182  66.9554520  28.4767056 104.2492294  47.9663563  26.2763047
 104.5005798  47.1463156  25.8513403 103.9526463  48.5266733  25.5591440
  64.0758084   1.3058441  84.3828404  64.0286302   0.9794872  83.4842307
  65.0126027   1.3396804  84.5764983  66.8402863  78.9156580   9.0217113
  66.6279697  77.9828978   9.0549809  67.5721645  79.0165567   9.6303231
  99.1035080  50.1717377  22.8264523  99.5993996  50.7177114  22.2163439
  99.4600964  50.3901196  23.6874890   9.9915077  52.7015352  12.8586900
   9.1796447  53.1763649  12.6808000  10.3516437  52.5100422  11.9927418
  97.6130009  64.2048359  12.5970483  98.3179951  64.6723795  12.1491361
  97.6293659  64.5463276  13.4911096 105.0321007  86.9070435  24.6110010
 104.8511028  86.1745453  24.0219975 105.9269524  86.7546844  24.9147320
 104.6781921  56.0530376  29.0540528 104.9230766  56.4495945  28.2179880
 105.4671955  56.1211967  29.5916963  11.4513733  69.1606665  33.7756658
  11.0656597  69.7874594  34.3877006  12.0205165  69.6903419  33.2173133
  89.4563103  51.8128157  21.7540431  88.7934971  51.3681364  21.2256718
  89.3191624  52.7434111  21.5768027  86.9207287  69.9773264  41.7742157
  87.8315353  70.2049398  41.9608688  86.7910671  70.2369308  40.8620644
  79.9970150  60.3857183  64.0011024  79.9173403  61.3199091  64.1939116
  79.1452646  60.1425409  63.6383200   7.2635032  93.2932949  49.4449854
   6.9583561  94.0011692  48.8775063   6.4623787  92.9124546  49.8047018
 104.8365688  43.8858795  62.1796608 104.6758747  43.1504059  62.7708340
 104.0501785  43.9323425  61.6358995  20.6703998 102.7017307  28.0058932
  20.2825691 102.8019524  27.1365404  21.6135170 102.7685738  27.8565764
   7.4973919  95.3647614  66.0390759   6.6468097  95.3647137  65.6000614
   8.0619194  95.8851719  65.4674768 109.8021746  12.0384979  18.8170028
 110.0387526  11.4947700  19.5684099 109.5625258  12.8830528  19.1984856
  94.3421936  46.0418224  29.4296265  95.2875328  45.9308434  29.3284273
  94.1519928  46.8770123  29.0024114   7.0117714  90.7222366  63.9298677
   6.3067867  91.3501835  64.0877008   6.8912841  90.0526333  64.6031857
  85.2972412  53.8759327   9.1274649  84.7921371  54.4617701   8.5636443
  84.7048378  53.1455612   9.3059081  13.8836052  79.6684837   3.4082827
  14.4627906  78.9837360   3.7427801  13.5752918  80.1249313   4.1911218
  81.1738873  58.6842728  39.9267912  81.0392952  59.4582319  39.3798900
  81.1654568  57.9514742  39.3110275  95.0165558  59.8824167  62.7125692
  95.5884743  59.4364405  63.3372641  95.1127625  59.3835402  61.9013405
  77.0839357  16.7873943  29.2865276  77.9173756  16.5884185  29.7131658
  76.5555000  17.1960711  29.9720693  58.7766313  24.4159000  73.6487246
  59.2344236  23.7446086  73.1427312  59.3674897  25.1688879  73.6374009
  89.8568153  52.7845716  39.2449188  89.0456104  52.2764969  39.2499709
  90.4758549  52.2425699  38.7557745   8.9108326  81.4971542   8.3279514
   8.9338543  81.1007404   9.1989046   8.5013630  82.3515224   8.4644085
  80.1470852  54.2898941   7.6552528  80.1649189  53.6266804   6.9652820
  79.3052769  54.7311211   7.5416523  19.5198871  49.4457960  49.5235300
  20.4291107  49.1578197  49.4422150  19.2729713  49.7123671  48.6379766
  89.1706562  65.4772425  35.2560997  88.5544491  65.9795570  35.7892156
  89.7192669  66.1396599  34.8360348  68.7770653  50.0254822  19.3390465
  68.4098482  50.7858944  18.8883138  68.0139494  49.5087433  19.5976400
  89.5715904  51.6504145  44.9047375  90.5237675  51.6038561  44.9909258
  89.2695618  51.9709206  45.7546091  32.1635772  89.9063492  54.1352987
  32.7709056  90.3747463  53.5626030  31.7476417  90.5932045  54.6563101
 108.9968681  54.4711494  42.4666691 109.7341347  54.2427397  43.0327892
 108.9981461  55.4281282  42.4461365  14.8803760  78.1958437  52.1039915
  14.1045524  78.7092876  51.8788147  14.9003460  77.4941254  51.4532804
 107.2321224  48.1447935   3.6619297 106.4721584  48.6762667   3.4247950
 107.8157902  48.7513447   4.1176257  12.6545765  56.0384130  20.3429103
  13.5881378  55.8968639  20.4999399  12.5308181  56.9794369  20.4669571
  83.0522870   0.7292383  92.6141371  82.6769399   0.7130449  91.7337460
  82.7599954   1.5623777  92.9838365 108.8107586   2.5774303  17.3525536
 108.8390255   1.6247618  17.2639227 108.7733555   2.7291137  18.2969189
  31.7666720  99.9990004  87.9050288  30.9700011 100.5094116  88.0500347
  31.5960120  99.1611927  88.3353630  78.3913517  26.1112714  23.3366251
  78.6852598  25.2680326  23.6812973  77.5513983  26.2669039  23.7684631
  91.4753723  82.8660393   6.4989406  91.9930458  82.4261856   7.1733123
  91.9604683  83.6694431   6.3106132 100.9466934  39.1211653  32.0706391
 101.0428238  38.2139730  31.7808223 101.8433857  39.4517827  32.1241903
 113.1920338  56.6149044  17.7018070 112.6075745  56.1614275  18.3092546
 113.7881851  55.9341240  17.3897660 110.3150272  79.7702932  25.4539990
 110.6778526  79.0374613  25.9515381 111.0580444  80.3579617  25.3169489
  91.8475628  89.1195774  24.9870944  92.7658749  88.9703465  24.7620320
  91.3985348  89.1657066  24.1430092  80.5405998  38.9143467  37.6246905
  79.9399710  38.4159446  37.0705438  79.9761486  39.3294168  38.2768798
  46.3729909  17.4864561   4.0036499  45.8999399  17.2402937   3.2087528
  46.0475686  16.8838293   4.6723568   9.3509628  63.7431002  27.0106101
   8.6142112  64.3360949  26.8630195   9.5415546  63.3782053  26.1464572
 112.1434593  87.8983021  34.9587536 113.0975342  87.8857231  35.0350022
 111.9795036  88.0168819  34.0231872   4.0427353  36.3053298  25.8260155
   3.6759140  36.1217833  26.6908765   4.0024997  35.4669166  25.3659320
 110.8393478  66.1345196  34.2417860 111.0006618  65.3581333  33.7056565
 110.2604485  65.8276558  34.9396038  84.8383191  20.0227339   5.5517876
  84.4468358  20.2238590   6.4017975  85.1007989  19.1047699   5.6201660
  80.0862503  65.2782679  65.2181005  79.9349260  64.7526979  64.4325352
  80.0202084  64.6537495  65.9404898  23.8678791  39.1523075  10.0856602
  23.2143165  38.4615684   9.9762857  24.6842243  38.6841059  10.2606010
  98.2928562  40.4303551  33.1462216  97.4242592  40.0558233  32.9996276
  98.8677025  39.9390221  32.5593829  10.2407600  41.1119413  24.8936057
  10.9369423  41.3860130  25.4906344  10.0212623  41.9034910  24.4021869
  18.0527641  18.8035417  49.3243074  18.5854675  19.5843828  49.1734695
  17.9316665  18.7758911  50.2734137  78.9639282  61.0879087  51.8750906
  79.8651981  60.7668543  51.9045162  78.4311581  60.3278112  52.1088600
 104.2366600  68.7673426  28.6590195 103.5248947  69.1680813  28.1599832
 104.8154926  68.3949518  27.9938078  15.1511146  88.8893700  14.9834359
  14.4709446  88.4134197  14.5069194  15.9020664  88.2958221  14.9855018
  15.8016254  67.7843142  34.0118504  15.5680420  68.4533072  34.6553683
  16.7359878  67.9196024  33.8540983  91.2954903  65.7723379   8.4943551
  91.5690613  66.4315271   7.8564996  91.8716526  65.9125233   9.2457652
  96.6402054  57.4969625  44.4059753  96.4613056  58.0270243  43.6292744
  96.9509602  58.1249428  45.0581312  96.1236382  44.7221804  71.7232561
  96.0207081  43.7714291  71.6819239  97.0660305  44.8569441  71.8231153
 110.1936626  83.3487034  13.3641756 109.7938633  82.6341152  13.8599229
 109.6050835  83.4835815  12.6214707  92.4007702  45.0798035  31.4727449
  93.2876110  45.2635479  31.1629319  91.8362713  45.6131983  30.9132266
 109.3521786  55.9752798  37.6201773 109.6807480  56.3095903  36.7856073
 109.4823360  55.0284672  37.5668526   3.1624557  77.2477913  57.3896170
   2.2945644  77.1046352  57.0121145   3.4159710  78.1186819  57.0838213
   5.5499031  37.5571084  23.4263301   5.4436161  37.0245337  22.6381016
   4.7522499  37.3992777  23.9313745  31.0248377   6.8799590  46.3884783
  31.3124659   7.3474311  47.1726847  31.1001971   7.5241374  45.6844950
  25.0828506  45.1156044  34.1476512  26.0016395  44.9497700  33.9365363
  24.6335651  45.0840712  33.3030367 100.5060196  44.2962217  20.4401469
 100.0513840  43.6139679  19.9461198 101.3901234  43.9517260  20.5663490
  85.5401230  82.1947861  49.3982220  85.5647564  82.7045345  50.2080202
  84.9675846  82.6956654  48.8172340  81.1659050  67.4011755  29.7897148
  81.9508743  67.1867085  29.2856693  80.4895782  66.8226147  29.4374681
  87.1814060  52.1384001  32.7511239  87.2936535  51.9380093  33.6803579
  87.9224873  52.7051640  32.5371027  65.8588123  94.6706867  65.7139874
  66.1389637  95.5854797  65.7439423  65.6618643  94.5106030  64.7910500
  85.3862572  62.4876022  52.2175980  84.6184921  63.0473280  52.1014833
  85.6598377  62.6408768  53.1219721   3.1227733  83.2743835  28.1825423
   4.0561725  83.0636692  28.1581831   3.0582573  84.0056229  28.7968397
 113.3430195  85.8847618  61.5047026 112.6954460  85.7394123  62.1944523
 113.2317924  86.8038654  61.2615871 107.3238468  52.6953840  44.5215940
 106.4463711  52.4640656  44.2170286 107.6839256  53.2410908  43.8224649
  20.7355167  71.9383287  34.1983581  21.5401222  72.2403336  33.7768769
  20.0848247  72.6047516  33.9776516 108.8569260  55.6597376  45.1664686
 109.3631554  54.9241924  44.8215866 108.5894585  56.1514187  44.3899775
  27.2868682 100.9632683  20.3848553  28.1503822 101.0241222  19.9763668
  27.3565818 101.5011024  21.1735964  19.8627330  73.5846043  49.8668814
  19.0818264  73.7010574  50.4080343  20.5512001  73.3467340  50.4879093
  72.0413113  89.1920280  61.0219431  72.8056908  88.6630344  60.7936478
  71.5294933  89.2344570  60.2141809   5.9485580  43.1967497  25.7087183
   6.9053318  43.1931353  25.7369971   5.7117321  42.2934103  25.4986453
 110.0034714  26.1255956  18.8703132 109.9851704  26.3114452  17.9315078
 109.2239189  25.5918384  19.0240550  22.6969196  74.9784899  29.4727659
  22.4315788  74.4195938  28.7423801  22.1273090  75.7449484  29.4070935
   8.2034637  97.7781773   7.3970813   7.5215103  97.7247334   6.7275196
   8.5972740  96.9058037   7.4080116 108.8853359  67.3625660  42.5138235
 109.6743488  67.0839262  42.9786396 108.1662846  67.1276712  43.1003523
 109.4358349  30.2730107  11.6492212 108.8593102  30.9760189  11.3498282
 109.1162014  29.4922185  11.1970818  15.8072044  89.2954254  40.4400301
  16.6415264  89.2157173  39.9776578  16.0491802  89.5650768  41.3260126
  19.8129131  57.7001476  36.1967969  19.2983200  57.0158958  35.7687449
  19.8829128  57.4130058  37.1072268  30.7464267  60.9969139  63.7092924
  31.2488796  61.7585230  63.4199476  31.0150768  60.2939320  63.1177950
   6.1534499  96.4740532  79.4658745   6.6972159  97.0849722  79.9632001
   5.5784033  97.0346373  78.9450109  93.1411839  24.1157317  33.3287907
  94.0241146  24.0708113  32.9618311  93.2737541  24.0849590  34.2762685
  81.7437077  67.6728392   1.0323745  81.7958355  67.0475054   0.3095544
  81.9650745  68.5156822   0.6363441 110.1454639  69.4860983  20.3216243
 110.9254360  69.0626526  20.6801844 110.2935505  70.4209709  20.4641604
   5.9374286  50.2915382  64.9622774   5.9894230  49.5562506  65.5729151
   6.8454124  50.4564714  64.7081232  69.7604990  89.5510578  44.3741083
  69.8755932  89.7183800  43.4387016  70.5902386  89.1629887  44.6518803
  87.9837036  50.9726143  51.4394236  88.1270790  50.8431816  52.3769331
  88.8205147  51.3029051  51.1124992  97.0435905   1.0342676  41.2073469
  97.8595638   1.4812529  41.4323330  97.1472073   0.1523397  41.5646935
  84.9708748  25.0374603  60.6056023  85.7617664  25.4997563  60.8830929
  84.6801376  25.5078912  59.8243189  84.6689987  59.9576187  37.8706503
  85.0233364  60.3173304  37.0574570  84.2680931  60.7077694  38.3097172
  92.2991467  64.3401146  17.8373396  91.9927025  64.3367672  16.9305253
  92.8264809  65.1357365  17.9090178   9.0339424  71.9921494  13.3753765
   9.8980190  72.2607088  13.6875975   9.0383674  72.2083139  12.4429142
 100.9637451  39.8609185  65.3383875 100.8787632  40.5677032  65.9782839
 100.0668335  39.6874809  65.0525618  14.2369987  51.2557507  66.5024519
  14.0097000  50.6484604  65.7983494  13.4194900  51.3803291  66.9845200
  82.2326183  83.8887596  69.6217775  82.7910995  83.3379841  69.0731668
  82.8409767  84.3354988  70.2104712  73.9787292  60.0905561  46.8953371
  74.5163679  60.6423092  47.4634457  74.3711853  60.1861477  46.0275412
  33.5442783  47.8674841  33.7450314  34.0486576  48.2847404  33.0466509
  32.6364948  48.1101847  33.5626936  87.7920628  48.8838339  26.8581200
  87.5544262  49.0993595  27.7599573  87.7731895  47.9273081  26.8275261
 108.8398838  44.0168619  21.7647457 109.1112709  44.1656733  20.8589673
 107.9236221  43.7477970  21.6991162  95.0895214  73.1507206  27.5989509
  94.4398212  72.5464249  27.2398567  95.5576897  73.4821129  26.8326497
  26.6255282  87.7134269  87.3368484  26.6857432  88.3226984  88.0726454
  27.5003050  87.7199238  86.9483096  12.1292450  52.9800558  30.7142520
  12.8280689  52.5527096  30.2190161  12.0128776  52.4291754  31.4883447
  84.8897648  53.0891752  24.5651627  85.2004528  52.4510050  25.2073789
  85.6884003  53.4470463  24.1774273 104.2498875  60.0008631  88.2254791
 104.3150520  59.2100763  88.7608624 104.5317459  60.7073879  88.8065147
  79.1537380  58.4677172  44.0686655  79.9285793  58.7271452  43.5701084
  78.5320425  58.1670666  43.4058428  87.5327873  66.1981773   3.0723521
  86.8806458  66.6097975   2.5053304  87.3159218  65.2661467   3.0494982
   5.3145649  43.3379984  55.8262634   4.8522140  43.7321711  55.0866079
   5.8766891  42.6722240  55.4300451 107.0853424  56.6222572  30.5317664
 107.4825859  56.3697863  31.3652468 107.8242397  56.7009974  29.9283910
  82.1665668  20.4234576  32.9431748  82.7343655  19.7002316  33.2092214
  82.7572727  21.1713219  32.8537583 107.2197342  67.0264959  67.2959661
 106.8739414  66.4898491  66.5827560 106.8822861  67.9048157  67.1201420
  70.1181507  73.7721491  38.0944014  69.5194769  73.4594631  38.7726736
  70.7008743  74.3792343  38.5505986  99.2506981  51.8376970  17.8565621
  99.6321678  51.1217356  18.3646059  98.8783073  51.4116573  17.0845187
  94.2203999  48.0958366  56.8685198  94.6373367  48.0164719  56.0105562
  94.8210144  47.6536798  57.4685144  66.0079145  12.4850433  76.3040984
  65.6908845  11.7813270  75.7379663  65.2129029  12.9093282  76.6268576
  86.9513702  77.4699116  27.9426670  87.3110962  78.1015873  27.3199153
  86.0025501  77.5601387  27.8542614  25.2708628  12.3299693  55.1961184
  25.1170447  13.0659198  54.6037149  24.4506457  11.8366908  55.1832676
  97.0302010  69.9381161  32.9886317  97.5256729  70.3993893  33.6653638
  97.6847458  69.4120932  32.5291753  15.6764557  47.8332233  14.5540392
  15.1712944  47.6637125  15.3492153  15.5990650  47.0265579  14.0445983
 101.5995407  65.8699465  18.7075579 101.4938354  66.4880133  19.4307816
 101.8345451  65.0441217  19.1306591  11.8765976 101.8809700  47.1948290
  11.3932373 102.5875950  46.7667150  11.3495208 101.0983658  47.0337296
   9.1366722  51.3667488  51.3132000  10.0183632  51.0147333  51.4354515
   8.8476993  51.6005754  52.1952677  23.4120800  70.6302309  30.3184032
  23.2617809  71.4045620  30.8606768  24.3210079  70.3872299  30.4945493
  83.9820957  76.9860029  19.0929651  84.5091629  76.3193560  18.6524951
  84.4846153  77.7943230  18.9913833  23.9544585  14.4401359  78.5398293
  24.6286299  13.7785530  78.3847857  24.4003775  15.2748012  78.3959150
   3.4808685  75.4379225   8.0790651   3.1343891  75.4430485   7.1867895
   3.8033821  74.5456266   8.2056409  76.3594961  70.4984665  51.2600613
  76.4075375  69.6745014  50.7752848  77.2625208  70.8149719  51.2845135
 108.1794262  82.1134281  19.6236312 108.0979824  81.4845371  18.9066267
 109.1171646  82.1396351  19.8138666  11.6396095  63.3937311  30.7182574
  11.4261867  64.2926168  30.4678893  10.9821178  62.8587246  30.2736282
  88.0801582  57.9296446  85.3728485  87.7219963  57.0501137  85.2529144
  87.4166584  58.5111284  85.0015259   2.3281719  99.8545361  12.9571986
   1.9934894  99.0748692  12.5140989   2.2088863 100.5607128  12.3221278
 112.5778294  48.1888962  62.8615427 113.2739162  47.5321102  62.8799772
 111.8531322  47.7571964  62.4091291  36.9224979  79.3216515  37.8657222
  36.8226101  78.4693861  37.4415731  37.8689815  79.4569063  37.9115653
  11.7582561  88.0352306  21.5746880  11.1265422  88.7543583  21.5685892
  11.7290928  87.6984119  22.4701929 110.7234192  44.9001360  16.3967764
 111.6081905  44.5797205  16.5721142 110.5191135  44.5722485  15.5210006
  98.5255432  69.8632574   3.8387290  98.5319519  69.0619898   3.3151203
  98.2867432  69.5723438   4.7188300 103.1132030  57.2927141  14.0059257
 103.3822441  57.9410696  13.3551729 103.9056110  56.7846155  14.1796088
  87.6240730  47.3275518  32.7995944  87.4758625  47.5434494  33.7202764
  88.4790897  46.8973637  32.7890968 112.7916241  65.4565334  24.1627598
 112.8278446  65.4949665  23.2070184 112.4423695  64.5861673  24.3543983
  37.0574573   9.6426041   5.3014862  36.8700507  10.5684788   5.4559719
  37.7309469   9.4238455   5.9455216  85.1413488  71.6419046  80.4810000
  84.3976258  72.0832174  80.0706959  85.9009408  72.1657197  80.2263165
 105.0847816 103.6349297  67.9627132 105.0748062 103.6002541  67.0061922
 105.9994507 103.4799194  68.1984758 104.1080189  55.5357504  23.8670111
 104.7123814  56.2769604  23.9067936 104.6346760  54.7826529  24.1347909
   9.6075775  67.5266981  38.2503605  10.1032306  67.0839834  37.5614786
   9.3947555  66.8336916  38.8754034  93.9912605  26.6167021  40.8842802
  94.6825695  26.2587118  40.3273535  93.9878368  27.5538301  40.6893063
 101.4589500  62.9508209  19.4602704 101.3396072  63.2119560  20.3733945
 100.6012249  62.6220369  19.1911185  82.4970531  46.2693024  26.9296861
  83.4051609  46.1662912  26.6451430  82.0030594  46.3829184  26.1177182
  79.4269085  76.7028570  21.7506170  80.1815319  76.3965273  21.2476921
  79.8063612  77.2223139  22.4594283  21.8943454  65.3775835  15.6392157
  21.8990089  65.3041077  14.6848512  22.7494861  65.7496452  15.8549666
  22.6999523  38.8400745  38.7652493  22.4844505  38.1202507  38.1722522
  21.8536045  39.1353488  39.1010118  64.8064280  76.7892742  22.1424937
  64.6409512  77.7298117  22.0773339  65.7595396  76.7167044  22.1929288
  31.8411590  61.1405087  16.0898817  31.0088588  61.5126514  16.3814580
  32.4335910  61.8905163  16.0374284  12.4676372  77.0193052  32.8584909
  13.0248977  77.7846432  32.9997039  11.7340995  77.1427059  33.4609270
  10.7958938  73.6606073  36.4212441  11.4456798  73.9528084  35.7820010
  10.1371338  74.3550205  36.4276791  83.2153606  72.2472095  44.9569607
  83.7113285  72.8202391  44.3722534  83.8829517  71.8003178  45.4773760
  19.7741653  44.3728828  61.1816931  20.2099849  44.5017862  60.3392744
  20.4895546  44.3136501  61.8148899 112.6097298  74.1821241  24.5386410
 113.4896183  74.4298267  24.2546034 112.0247078  74.6887493  23.9753366
  26.1954024  16.2912750   4.4858137  27.0953181  16.5986728   4.3767303
  26.1558249  15.9825611   5.3909993  10.5276920  56.2899113  62.1172094
  10.1557113  57.0463085  61.6636419  10.2041198  55.5339193  61.6273069
   9.6428634  64.8997164  57.1394730  10.1592304  65.6476593  56.8391609
  10.2935554  64.2371893  57.3716211  93.0975151  34.9814272  52.0020056
  92.4828243  34.2486453  51.9644880  92.6241589  35.6672525  52.4729729
  94.6198845  56.7806292  41.7426395  95.2542973  57.4312782  42.0433235
  95.1528740  56.0308886  41.4779949  89.8922539  46.2188530   4.6398187
  89.6362686  46.9285727   5.2288878  90.4044247  45.6250000   5.1886779
 106.8921089  56.0758257  17.0091021 107.8007126  56.2524939  17.2529554
 106.3733959  56.5208149  17.6792908  86.9853497  48.0332565  35.5106354
  86.9938469  47.0763779  35.5339384  87.6316357  48.2945585  36.1665845
  89.7240067  35.8368659  51.1898851  90.2545071  35.0884771  51.4632273
  90.3572941  36.5406680  51.0490322  78.8065577  79.7726631  33.6874533
  77.9179335  80.1259136  33.7297606  79.3711948  80.5207920  33.8816857
 104.0813065 101.2077522  55.0737572 103.6660194 102.0250988  54.7985840
 103.5541534 100.5216122  54.6644211   3.5628273  75.3258038  36.3628554
   3.5559990  76.2826157  36.3365173   2.9162838  75.0635481  35.7075357
 106.6487217  45.4484320  16.7087650 107.3331547  45.5099964  16.0424352
 106.1146641  46.2317276  16.5766370 112.2050858  64.4228125  14.4924092
 113.0083370  63.9048767  14.5449960 112.0861149  64.5859575  13.5567474
  49.9669983  54.3158913  88.5170555  50.4029800  53.5430050  88.1581783
  49.0599205  54.0398788  88.6483288  97.2002697  65.3643990  40.8293247
  98.0324364  64.9080610  40.9537840  96.5677357  64.6666574  40.6581831
  10.3877784  48.2638741   9.0129662  10.8614971  48.5142994   8.2198042
  11.0744812  48.0736494   9.6520948   8.3670761  49.1141844  29.1033578
   8.4472133  50.0084972  28.7716675   7.6718284  48.7237310  28.5738206
  82.4100494  39.6648431  61.9567490  82.0723438  40.3781223  61.4150715
  83.1081963  40.0666523  62.4738312  17.6741935  74.7295952  40.5053711
  16.9639255  74.3243742  40.0078392  17.3285057  74.8097801  41.3943624
 108.1156635  69.3898201  14.2228746 107.9276657  68.8725567  15.0060260
 108.9383411  69.0307522  13.8904607  10.3141262  74.9282265  23.0400634
  11.2383606  75.0075340  22.8039885  10.3194954  74.4601440  23.8749886
  15.0000335  58.1013870  62.5169373  14.4133808  58.2106113  61.7685127
  15.2774002  58.9910173  62.7356768  25.1166488  34.8306918  47.6046419
  25.2260639  33.9339566  47.9210663  24.6636535  35.2823448  48.3167028
  85.2309704  59.8912859  43.2646704  85.4825974  59.5373774  42.4116373
  85.8876038  59.5468664  43.8700151  68.1872559 106.0630512  11.1824596
  67.8725433 106.8972588  11.5307057  69.0962839 106.2339973  10.9361231
  90.8195686  82.4771595  63.2916212  90.0068474  82.7209473  62.8485870
  91.4008904  82.1929169  62.5862885  97.2351360 100.2611923  69.5209789
  96.6376591 100.4107094  68.7882423  98.1003857 100.2010250  69.1160631
  79.4451525   9.1388416  43.0663252  79.9917700   9.0762424  42.2830486
  78.8515475   9.8679065  42.8864956  88.2450294  60.2093124  51.6401339
  88.7931347  60.9331608  51.9432020  88.8123322  59.7084045  51.0540533
  94.0385246  93.0793190  45.2453327  94.8245525  92.6336956  45.5612707
  93.6761951  92.4873352  44.5861578 111.5138435  70.6165218  13.7045515
 111.9842339  70.0398874  13.1025052 112.0110798  71.4343262  13.6905646
 109.2691135  87.0669174  18.2453358 109.1085625  86.1928368  17.8897548
 109.9210167  86.9298458  18.9326906  61.3460541  23.5480571  17.6767313
  60.6775284  23.7700558  17.0286393  62.0798826  23.2157874  17.1596980
 101.6062400  78.1615656  83.8331527 102.0804736  78.6618274  83.1690222
 102.2490594  78.0151790  84.5271123   8.7938784  62.0956486  77.5012517
   8.0419920  61.8080919  76.9833601   9.5426749  61.6514986  77.1034277
  39.2532635  19.5876050  11.6143084  38.9131999  18.6964166  11.6941321
  39.3835878  19.7109103  10.6740725  69.7341347  10.7984900   9.6407193
  69.3287420  10.2722752  10.3299093  69.6594334  10.2599406   8.8529277
  98.6655998   8.7935776   9.9371368  99.1250896   9.3572825  10.5595016
  97.8299904   9.2352200   9.7856802 103.6712074  28.1739354  17.1436286
 102.7254200  28.2668138  17.2580040 103.7792683  27.9416609  16.2213469
  57.1805524  90.6686295  20.1507497  57.5232553  90.6936443  21.0441446
  57.7171563  91.2993146  19.6706283  89.2915440   3.4413642   4.8755535
  89.1830826   3.0704501   5.7512766  88.9834595   4.3438858   4.9578661
  13.3578966  86.6026157  88.5672152  12.5053690  86.1685007  88.5984814
  13.5580061  86.6705125  87.6336313  55.9941053 104.3833274   7.8885210
  55.2082490 104.9290334   7.9181498  56.1638879 104.1580493   8.8032091
 102.3625085  67.6009112  83.1950516 101.7547270  68.2599598  83.5304368
 102.5429675  67.8767782  82.2964049  51.0341596 100.0123376  55.6038427
  51.8145894 100.5315757  55.4100418  51.2755345  99.4947148  56.3719797
  60.3176403  14.9049819   5.6001318  60.2606010  14.3224978   6.3575554
  60.9808779  15.5506635   5.8439445  22.3608206  42.0193725  89.2529744
  22.1133421  42.5015121  88.4639687  22.3988055  41.1048811  88.9728076
  93.4477234  36.1114073   2.9372564  92.9992771  35.4963660   2.3568682
  94.3009663  35.7090139   3.0994228  86.0068512  18.7345469  13.7747049
  86.9282150  18.8597798  13.5474539  86.0272694  18.3101308  14.6324265
 106.7346001   0.5587573  15.0579941 106.9629955  -0.3666646  15.1455200
 107.5483036   1.0253623  15.2487695   6.7021750  63.5158222  88.2096806
   7.4254130  63.2651334  88.7844116   5.9141348  63.3038228  88.7099672
  91.0201550  20.7677746  46.4485359  90.4917049  20.9121013  45.6635857
  90.8733749  19.8482728  46.6703558  91.2015915   3.2626188  10.5537295
  91.3900852   2.3257795  10.6088281  91.8185616   3.6673301  11.1634743
  71.1663102  91.0310221   7.3474574  70.9055089  90.4972792   8.0980116
  72.0159482  91.3950646   7.5961179  29.6677732  86.5061522  10.4261851
  29.0994214  85.7534576  10.2629209  29.3434858  86.8776584  11.2465811
  70.1841307   1.6749518   4.8306179  69.9718809   0.7545452   4.6755901
  70.1184130   1.7793122   5.7798398  56.5130043  13.2997358  41.4513206
  56.0771465  13.1807351  40.6074619  55.8162689  13.1897330  42.0983839
  41.1738776  57.1606446  11.3346446  41.4735889  58.0575944  11.4825618
  40.2406167  57.1819831  11.5463161  70.7086086   3.8321128  16.2592936
  71.3371372   4.4296071  16.6644871  69.8617506   4.0945604  16.6201138
 106.2494799  89.2159098  76.5928281 105.4989764  88.6409371  76.4432073
 105.9453198  90.0821393  76.3219667  30.8882188  99.6503431  59.5992374
  31.3073014  99.1934866  60.3285456  31.5833139  99.7517962  58.9490223
  54.0349244 101.5863515  10.2272499  54.6503686 101.4182538   9.5136660
  53.5133313 100.7859898  10.2872133 105.7819557  14.1522264  39.1585112
 104.9148178  14.5573187  39.1727924 105.6073666  13.2115340  39.1876554
  88.4408283   0.4321010  58.1789827  88.1147194  -0.4498961  58.3577633
  88.0152416   0.6832244  57.3591995  17.7312086  63.6100369  79.5131362
  17.7087782  63.8613051  78.5897768  18.1582640  64.3461233  79.9513567
  60.1311398   6.6934574   6.0487634  59.7938299   7.5021124   5.6633663
  60.1023245   6.8479329   6.9929767  93.3108616  19.4005120   1.4171787
  92.8235245  20.1202083   1.0162199  94.2297649  19.6510196   1.3217431
 111.7071053  32.5929516  84.2647636 112.6327750  32.6272314  84.0235406
 111.4060733  33.4983891  84.1886616  19.7043799  86.9116204  87.6928950
  19.5637701  86.3399213  86.9381619  20.3591440  86.4546602  88.2208163
  97.0496655  30.9557915  30.4490399  96.2942505  30.9935403  29.8623943
  97.7259445  30.5085874  29.9402308  34.6029805 102.2429398  17.8955972
  33.7474012 101.8821696  17.6631010  34.5285701 102.4553204  18.8259673
  42.7999260   8.1181753  29.3007946  41.9230892   8.4834611  29.1827083
  42.8669979   7.4356735  28.6330199   6.3978575  40.2504068  89.5986498
   6.1699198  40.9454935  88.9812953   7.2345541  39.9118906  89.2799393
  49.0381383  96.4005364   4.7077698  49.2791795  95.6922770   5.3048450
  49.3230867  96.0951496   3.8465062 112.8934285  57.8102722  82.5013852
 113.5749051  57.3722439  83.0112392 113.1535718  58.7314247  82.4953997
  92.4235439  10.1025271  20.9909272  92.1994400  11.0314178  20.9345961
  91.5789509   9.6551263  21.0432148  91.5183067   0.4968623  18.4696507
  91.9622517   1.1494379  19.0112078  91.6121197   0.8241341  17.5750422
  29.7433470  52.2187453  82.7041674  29.1484354  51.5032172  82.9285032
  30.6107233  51.8935948  82.9453349  25.6245755 102.6058522  24.8375106
  25.4613923 102.9364655  23.9541674  25.0529908 103.1298155  25.3987455
  46.3341283  95.2603710  14.8079014  46.3121461  95.0635291  13.8714170
  46.9855832  94.6563995  15.1643658  80.8963585   0.4732998   5.0043058
  80.5815697   1.1147649   4.3673933  80.9418106   0.9570564   5.8290154
  88.1772900  20.6392312  60.2257395  87.8445244  20.2841020  61.0499859
  87.5947380  21.3726616  60.0284052  67.5280571   6.9999754   9.5204246
  68.3824492   7.2613746   9.1770393  67.6674271   6.9051647  10.4626667
  96.6701409  33.0164497  87.7557117  96.7081114  33.7157124  87.1031618
  95.9406373  32.4647587  87.4734086  29.3853949  54.1731852  84.8867697
  29.0220736  54.9214762  84.4131798  29.6720789  53.5712941  84.1999132
  28.7968396  83.0827571  31.2151384  27.9610204  82.6636100  31.0102987
  28.6588954  84.0067196  31.0065842  86.9313145  22.5292993  37.4038386
  87.2178364  23.3553553  37.0142674  86.0057735  22.6676702  37.6050186
  71.6879272   8.4352791   5.7673103  72.5352669   8.5906959   6.1845571
  71.7091608   7.5111002   5.5189675   8.5074137  57.6667871  66.4366782
   8.6620901  57.8619322  67.3609221   7.9185961  58.3609503  66.1406005
 101.5549946  34.6711087  29.4087434 100.8350658  34.0404081  29.4211674
 101.3741493  35.2555418  30.1449251  97.1593475   8.6489612  19.8112237
  96.4508152   8.0905008  19.4913292  97.1485996   8.5291642  20.7608366
 109.2622471  20.5080199  59.8346758 109.8083115  21.0849953  60.3686666
 109.8212719  19.7535610  59.6488714   2.8908633  80.1425045  90.3239307
   3.2707499  79.2970913  90.5630835   3.5885762  80.5924314  89.8474986
   8.1118442  13.3753800  23.1448007   7.8815319  14.2736816  23.3819461
   8.7750675  13.4706712  22.4612117  19.4871329  75.6650942  82.2588599
  19.6816538  75.1165670  83.0188012  18.6213873  76.0299604  82.4421430
  97.1640968  23.7290883  24.1412997  97.6840305  23.6694074  24.9427581
  97.5772667  24.4317675  23.6395335   2.6784323  70.7274824  80.7648218
   2.6628874  70.1975053  79.9678803   1.9651554  70.3778761  81.2989033
  83.9898491   8.0832922   9.7992659  84.7206402   8.0649358   9.1813350
  84.2339039   8.7521416  10.4390395 108.7155342  40.2079964  33.4423971
 109.0280724  39.3299079  33.2244229 108.6787033  40.2185583  34.3988299
  46.0314321 103.6479503  10.6110823  45.0778054 103.7135369  10.6613994
  46.3215207 104.5346313  10.3968966  68.5967779  23.0806565  25.9655643
  67.8137827  23.5756803  26.2066150  68.5757875  22.3088312  26.5313172
   4.6565868  47.9887724   2.6585853   4.9772503  48.8868952   2.7408940
   3.9303447  47.9358673   3.2798833  91.0056877   8.3852309  11.7240369
  90.8311176   8.8351023  10.8973730  90.9434891   9.0717804  12.3881245
 103.9112473  24.8081899   7.0697671 103.9869976  25.3188729   6.2637293
 104.8042202  24.5163345   7.2532046  61.2422036 100.8920408  10.0261700
  61.7372655 100.3190411   9.4406641  61.1354779 100.3804738  10.8281314
  85.7098675  14.2825198  21.1684465  85.2633190  15.0244415  21.5763354
  86.0481834  13.7725139  21.9044304 108.7836075  11.8789494  13.7000859
 109.5151234  11.9683492  14.3109250 108.3937931  12.7524221  13.6637521
   1.1222030   9.1767722  23.4918642   1.6718818   9.9462152  23.6403441
   0.6994487   9.0179574  24.3358374  98.8553524  17.4488914  23.2450724
  99.3349171  16.6290224  23.3636594  99.5077801  18.1323183  23.3983517
  77.7372980  47.2647142  14.0794122  78.2816982  47.4195957  14.8513412
  77.7579737  48.0938005  13.6014819 103.9182472   4.4870895   0.9668567
 104.5193005   4.8431501   0.3124934 104.2912292   3.6360484   1.1967319
 110.0783157  41.2851858  29.5052552 110.3998280  41.5880680  28.6560678
 110.0660706  40.3310061  29.4302607  63.2767724  99.3235171  23.6006594
  62.6988649 100.0652063  23.7799430  62.8163575  98.8174850  22.9311967
  82.1283340  38.8916087  23.8603997  81.9476795  39.6885204  24.3589234
  82.8150082  38.4480691  24.3583703 112.6195812  22.7280259   8.9835298
 112.6172829  22.2982240   8.1282544 113.5218239  23.0259418   9.0994424
  42.1579217  95.6178845  48.0441141  42.7761029  95.3086079  48.7062597
  42.4168824  96.5245903  47.8796196  89.3650150  62.8838396  31.0412574
  89.6395683  62.9809952  31.9530725  88.7785244  62.1273804  31.0470247
  39.3841457 104.7898254  47.7750921  40.1585292 104.5850540  47.2510338
  38.9811944 103.9392681  47.9494858 111.3233039  86.4893311  83.7795031
 111.7714450  86.4262813  82.9360414 111.1993310  85.5805653  84.0533758
   0.5457495  52.9834222  90.1665266  -0.0481798  53.2171940  90.8798492
   1.1784743  52.3873686  90.5672907  93.6240482  15.7363069  35.6677628
  93.1203651  16.0656345  34.9233985  93.5671329  14.7837424  35.5928278
  13.5871650  25.6032872   7.2566950  14.2585041  25.5004406   6.5821946
  13.6790420  24.8252678   7.8066736 102.6799011  19.6211004  34.7484422
 102.4642277  20.5536175  34.7598672 102.0944977  19.2318952  35.3980923
 109.8139000  22.8927493  45.4722071 110.1000214  22.3933363  46.2370300
 110.1761055  23.7682128  45.6086111 105.0192261  32.1747756  33.0137634
 105.8672619  32.4431372  32.6601195 104.8591042  31.3146877  32.6253843
 106.6949749  49.5839977  27.0964575 107.0152378  48.8546371  26.5657067
 105.8685970  49.2689991  27.4626470 104.8667714  93.2931178  89.4309834
 104.6946236  93.8741367  88.6900300 105.0485656  93.8841646  90.1616308
  61.2629366  30.0320530  44.5078039  61.3677263  30.4851675  43.6711788
  61.9090223  29.3263149  44.4805288  56.9603299  87.6394940  16.1662185
  56.7101621  88.2194293  15.4469669  56.1374902  87.2412623  16.4500725
 103.5545444  23.7314963  22.1225810 102.8937149  23.4915876  21.4729786
 104.1976166  24.2435622  21.6321993  69.5339918  31.3581038  22.1449995
  69.5767260  31.4005160  23.1003046  70.4062891  31.6240954  21.8541813
  72.9667521  37.4094200  14.8035073  72.2327089  37.7384591  15.3222942
  72.5817633  36.7337561  14.2453933   9.4863127  83.0009311  90.5474668
   9.6465681  82.1068757  90.8494851   9.1025828  83.4441751  91.3041134
 112.6251316  24.9788570   3.4020352 112.0304871  25.5930424   2.9714483
 112.3220539  24.9483252   4.3094736  76.5546703  28.2515645  20.4916668
  76.1404085  29.0002918  20.9206462  77.0622778  28.6357641  19.7768557
  43.0983018  78.4958506  20.7569194  42.2746038  78.9448453  20.9470773
  43.6321878  79.1534758  20.3111386 106.2531757  12.7974737  21.8670058
 107.1948147  12.9451823  21.9549537 105.8771038  13.1671703  22.6658344
  45.1430558  98.4367270  72.1993685  44.7207021  99.1127134  71.6693735
  46.0737371  98.6590314  72.1738195  93.6822414  26.8824005  21.7072725
  94.4099331  27.2961640  21.2430596  94.0926075  26.1944413  22.2312379
 100.1969624  39.2922068  35.5236197 101.1446476  39.2825270  35.6579518
 100.0326729  38.5647345  34.9236012   8.5501052  32.0691848   7.6485813
   9.2765380  32.6770592   7.7864909   8.6598159  31.4062643   8.3302939
  86.0778236  33.5009217  37.0063925  85.4500389  33.0890155  37.6000667
  86.0158730  32.9893327  36.1997509 105.4538441  38.0046701  20.7410264
 105.1597595  38.8125682  20.3202558 106.3615036  38.1804371  20.9889770
  93.4761047  20.8145642  13.0845642  92.9433632  20.8658576  13.8781583
  93.2917118  21.6304278  12.6191616  40.1591490  55.0827404  60.4438746
  39.4707201  55.7248233  60.6171501  40.9753035  55.5648474  60.5769098
   6.1258270  76.9304085  11.1464572   6.6943409  77.5272226  11.6331255
   5.8001186  76.3183641  11.8064189 100.3460407  15.6325495  16.7729151
  99.7449303  16.3554764  16.5932727  99.7894096  14.9420273  17.1328712
 111.5541741  55.2101173  90.2513878 111.3851020  56.1218410  90.4888882
 111.4391276  54.7245430  91.0682194 109.4638920  11.9683886  45.8826160
 109.4631863  12.4332893  46.7193365 109.2319965  12.6362669  45.2373314
 108.9472911  48.8981485  85.4450792 108.1161973  48.8778528  85.9195304
 109.5279214  48.3330756  85.9547788  -0.0285672  23.4702587  35.6564736
   0.8391430  23.1910443  35.9486246  -0.0694893  23.2033157  34.7381616
  10.7163288  59.0764332  37.3923588   9.8584510  59.4831610  37.2704601
  10.6912948  58.7269211  38.2831168  20.6259777   7.5302941  22.1363759
  19.8637344   6.9773674  21.9646835  20.3789569   8.3907163  21.7974305
  30.0945757  52.0922227  76.9326687  30.0197409  51.7342851  76.0480714
  30.9744738  51.8452870  77.2173262  52.2220563 105.3623027  19.5221448
  52.8736543 104.6774276  19.3718469  52.6258611 106.1575190  19.1745830
   0.6035091   4.3135881  14.8556292   1.1156322   3.7464654  14.2791438
   0.5123855   3.8120216  15.6657898 101.0304642  25.4828763  28.4669757
 100.3866577  25.8212423  27.8446794 101.7026997  25.0773191  27.9193926
  59.3855762  81.1435890  17.7975559  60.1380730  81.6697884  18.0679250
  59.7574520  80.2898026  17.5762451  58.7355947  25.1509738   2.1511695
  59.3116426  25.3046107   1.4023057  58.0267048  25.7848525   2.0420617
  81.1979389  10.8834124  21.2996745  81.1083984  11.2003696  20.4009247
  82.0094490  11.2817144  21.6143799  73.2525301  41.3158894   9.7820127
  74.1712141  41.0771132   9.6585423  73.0065203  41.7514944   8.9659500
  10.6438540  95.6120794  84.6820188  11.3302038  94.9507921  84.7705984
  10.1980208  95.3866690  83.8655281  58.7411260  89.3808711  53.0336332
  58.0022859  89.9715043  52.8870201  59.5151948  89.9264360  52.8943157
  61.9658612  97.7937002  21.3506389  62.7734708  97.3418636  21.5952682
  61.9418382  97.7408720  20.3952003  80.5829620  18.4416842   0.4825246
  80.6999969  17.9436827  -0.3265052  80.5206585  19.3528688   0.1960055
 111.1523628  40.3872728  39.6752977 110.3582001  40.0178909  40.0614214
 110.8370590  41.0836649  39.0992355  91.6992664  32.9210639  10.6823528
  91.8527889  32.7341366  11.6084862  92.5192547  33.3093619  10.3772593
  72.8727388  41.4107180  26.9258738  73.6122179  41.8623877  26.5191793
  73.2542801  40.6179094  27.3028493  69.9806595   3.4097654  25.1837802
  70.2699327   3.1188983  24.3189406  69.3750000   2.7283481  25.4754639
 110.3595829  44.2966843  25.8414984 109.9001789  44.5115948  25.0297141
 111.1364555  44.8558044  25.8322883  15.7350017  16.4927924  20.8061147
  16.3258506  16.5765977  20.0577140  15.0585319  15.8836651  20.5101776
  50.3735350  48.2148605  92.0702103  49.9440478  48.8975137  91.5546914
  49.7358797  47.5016707  92.1017514  87.2617149  17.7455080  10.2742326
  87.7987862  18.1702113   9.6053433  86.6804123  18.4375060  10.5896163
  93.1393433   0.8839220   9.6745837  92.5033092   0.4256535  10.2238369
  92.8357124   0.7328038   8.7794852 101.9047070  25.5230427  24.0489841
 102.3827076  25.5353761  24.8781991 102.4357224  24.9713635  23.4746099
  64.7097445  20.8631015  31.0244846  64.2885637  21.2424755  30.2531791
  65.2257681  20.1336622  30.6811595  92.2643661  27.3929071  53.9607096
  92.3895550  28.2471347  54.3740559  91.4155006  27.4604630  53.5235548
  74.0198231  58.1635094  13.1332660  73.8705301  57.2268772  13.0041730
  74.1493225  58.5093498  12.2501719 106.4210606   8.1316406   8.0309296
 105.7768822   8.3921432   8.6892635 107.2547531   8.1247377   8.5011852
   9.6302698  70.5365317  83.9316625   8.9747332  70.4142135  83.2449687
  10.2397726  71.1794370  83.5691589  71.0044003   8.2020175  20.8753085
  70.8706427   8.8106167  21.6019082  71.6344833   8.6436093  20.3058982
  33.3511446  38.9187210  87.6688564  32.6872156  38.6734968  88.3132908
  34.1136740  38.3866566  87.8962282 108.3418655   8.2308263  37.9263020
 108.4733009   9.1615623  37.7455044 107.4025440   8.0933613  37.8038383
   6.9995020  73.0520850  82.7536315   6.0900019  73.0917030  83.0493796
   6.9410322  73.0550402  81.7982233  47.0764589  84.7902608   4.5018739
  46.7996549  84.3500782   3.6982268  47.9125547  84.3803907   4.7236678
  74.1046762  14.5238566   9.2302197  74.2843819  15.4634070   9.1958106
  74.4577217  14.2432392  10.0745201  24.8223926  41.3865280  14.1787446
  25.1789142  41.2740660  15.0599205  25.1959278  40.6632900  13.6751294
 112.9482746  23.4444141  21.5496898 112.0164871  23.3876848  21.7613101
 113.0230999  23.0372071  20.6866622  72.3862695 104.7585558   1.2010916
  71.6489648 104.5132639   1.7600590  72.1576833 105.6273529   0.8706798
  61.8397331  31.0463834   4.2012271  61.1924553  31.1501932   3.5037419
  62.4739408  30.4222274   3.8484693 104.2567921  34.0809202  36.7807984
 104.1238499  35.0288081  36.7726684 104.6190357  33.8972902  37.6475692
  81.8020630  15.8012998  42.2216988  80.8969593  15.6149030  42.4712610
  81.7448235  16.5930271  41.6867924  17.9331924  23.8938570  31.0135841
  18.3467342  24.6734905  31.3842368  18.5854961  23.2018924  31.1227441
  15.5296896  35.7370847  87.7592498  15.8377264  36.3718193  88.4061295
  16.3285254  35.3306954  87.4231947  95.6678149  79.0520590  61.1269200
  94.9308726  78.6229127  60.6922019  95.6517216  78.7088912  62.0203460
  44.7374391   0.5111473  75.7413924  45.1046895  -0.3325541  75.4777158
  44.7859048   0.5052154  76.6973460  56.2118863  97.5925398   8.4754968
  55.6074762  97.0909793   9.0226400  56.0378026  97.2879035   7.5849223
  34.8480414  49.1970234  92.0644959  34.5848845  49.9496134  92.5942044
  35.3500555  49.5758306  91.3428919  84.4887733  14.9759114  27.6877141
  83.6800957  15.0651586  28.1919932  85.1556301  14.7622180  28.3403039
  65.3670597  26.3659644  12.3844075  65.1325655  27.0598698  13.0006385
  66.0911846  26.7315483  11.8762541  64.3776560  18.0172694   2.0411249
  65.0184917  18.2338405   2.7183703  63.6060858  17.7247381   2.5262392
  87.5318146   9.2145073  57.9910564  87.6851845  10.1485550  58.1334019
  87.7538300   8.8051564  58.8273430  66.6638899  37.3706341  21.2867165
  66.2897444  37.1290946  22.1340108  65.9228373  37.7121043  20.7862473
  83.1648350  25.9649158  39.9305415  83.5426903  25.6788015  40.7621622
  83.9202499  26.1029100  39.3591094  98.5356236   5.1643634  40.2969790
  97.8831100   5.8632958  40.3411818  98.4426785   4.6970680  41.1271763
  97.8031731  17.3022568  66.3799953  98.4325027  17.3529208  67.0994520
  97.2172451  18.0458236  66.5215063   5.2710487  39.6072102  27.8330541
   4.3268444  39.7126675  27.9496264   5.4147197  39.7531939  26.8980265
  88.4755802  25.9100628  54.1515398  87.7328491  26.5137148  54.1379261
  89.2432976  26.4725566  54.0493393  96.8662071  40.2666378  46.9933128
  97.4300098  40.2642250  46.2197828  96.0096836  40.5395985  46.6645479
 105.3377151  25.5725837  29.0703988 105.9320354  25.3281426  28.3609891
 105.8837700  25.5569983  29.8564076 110.0682259  62.0727205  30.3833461
 110.0726223  62.7891350  31.0181403 109.2046165  62.1212530  29.9734044
 100.7832241  52.9376650  28.5445857 101.7350769  52.9922295  28.6295676
 100.6249523  52.0676947  28.1780744  95.1602554  38.6901116   1.3842152
  94.6689701  38.8032603   2.1978900  94.7729015  37.9156637   0.9762699
  93.8844872  65.0301743  40.8108854  94.0701008  65.9075975  40.4763603
  94.2839527  64.4405508  40.1713562  78.1270074  14.6950309  90.7489324
  78.9209031  14.4134729  90.2943126  78.1577729  14.2385070  91.5896883
   0.2440120  19.7325754  37.0071626   1.1922695  19.6247864  36.9335914
   0.1046707  20.0172138  37.9103804  98.3001137  42.5687885  50.3732538
  97.5434113  42.0173502  50.1743937  98.9538574  41.9621086  50.7208109
  93.8756943  70.7272243  12.6598549  94.3388367  70.9334469  11.8479419
  93.0876160  70.2645063  12.3751497  84.7938061  30.6441331  59.5942450
  85.3926277  29.8986983  59.5497990  84.5326042  30.6870103  60.5141211
  19.8516323  55.0847673  28.2064414  19.5029022  54.9394846  29.0859389
  19.6600868  56.0042334  28.0217052  13.8307430  30.3160644  55.9600449
  14.0493538  30.0805140  55.0584030  12.9147007  30.5908823  55.9204149
   1.1368991  26.9600582  27.6872873   1.4461090  26.6775990  28.5480070
   1.9199230  27.2932076  27.2489667  23.5925151  21.0256839  37.0259237
  24.4736911  20.7306266  36.7963743  23.0118229  20.4851341  36.4903522
  87.9274940  43.0110025  28.8248205  88.6992741  42.5225067  28.5385156
  88.1415844  43.2983398  29.7124219 107.1850014   1.4886861  21.5944219
 106.2314796   1.4292745  21.6535926 107.4992085   1.1322730  22.4253702
 108.3186817  13.7686265   4.5289838 107.7883244  13.2043028   3.9664069
 107.7442837  13.9814544   5.2645135 110.7752895  59.3703556  30.2475929
 110.5914021  60.3058577  30.3327632 110.6727982  59.0244246  31.1341929
   3.8325168  24.1594124  49.4331169   3.7093116  23.9766216  48.5016441
   2.9446842  24.2543221  49.7780466  90.0620365  59.3992329  14.8658919
  90.3821278  60.2775431  14.6601307  90.5712795  59.1318607  15.6310117
  66.2334824  28.3447814  19.8983371  67.1783590  28.2654119  19.7674167
  65.8931255  28.5971832  19.0400362 101.2956905  52.6151609  33.2012033
 100.9286213  51.7333889  33.1381798 100.8841991  53.0977058  32.4842262
  10.2871372  46.2942553  44.7284698  10.2066375  46.6430521  45.6162167
  11.0816909  45.7609987  44.7517776  58.9556932   9.8074834  83.2562399
  58.3090257   9.9913709  83.9375967  58.9406919  10.5835264  82.6960880
   7.3312809  39.4647288  32.0034838   7.5684024  40.0159359  31.2577081
   6.4199401  39.6913981  32.1886730 111.5637207  64.6628475  51.2002230
 111.3153839  64.9933434  50.3368950 112.4968147  64.8631191  51.2740421
 102.8628349  45.0298786  36.0356903 103.2908249  44.3172550  35.5611110
 103.2859135  45.8236647  35.7083726  12.1827270  31.2121606  36.4839673
  12.8131153  31.5183425  37.1359611  12.1773006  31.8974972  35.8157492
  55.7062673   7.5417535  82.4168682  56.5817594   7.8508012  82.1839881
  55.6340837   6.6859357  81.9942522  77.9301976  92.1822441  28.5008740
  78.5928392  92.6601601  28.9996028  78.3749723  91.3844097  28.2147574
  93.7578964  41.9577503   5.3828907  92.8675556  41.8747234   5.7243985
  94.0713978  41.0563087   5.3097570  22.5444697  37.2474616  79.7365797
  21.6058443  37.4059957  79.6362174  22.8360174  36.9764095  78.8660837
 105.0217056  58.7568569  36.1510253 105.5435562  58.2039499  36.7325807
 104.1142941  58.5563564  36.3804269  96.7575359  53.7156963  14.3737864
  96.1322498  54.2689085  14.8419785  96.3340950  52.8582859  14.3316972
 104.5397568  48.2097244  31.6840935 105.3802967  47.7757549  31.8303275
 104.2643452  47.9123735  30.8169365   7.9921581  48.9278173  18.2227242
   7.8137256  47.9927444  18.1225598   7.2790577  49.2500162  18.7740111
  84.8212624  54.8477125  27.1304321  85.2999878  54.3826580  27.8165698
  84.5342922  54.1595888  26.5301275 105.9237480  34.5694137  47.2206736
 106.6307163  34.0792942  47.6404381 105.1772499  34.4657922  47.8107834
  27.4030302  74.4349926  89.4973588  27.9238890  74.7744411  90.2251716
  27.9320525  74.6144240  88.7200758 107.6705647  32.2694135  39.9479008
 108.1041241  33.0922723  39.7217226 108.3819771  31.6922140  40.2253342
  36.3713314  40.2277040  23.0717111  36.0305359  41.0832405  22.8106523
  35.9981300  40.0760269  23.9400148  88.0545807  42.9773426  24.0256262
  88.1969357  42.9007626  23.0821753  88.4549046  42.1893024  24.3930030
  34.8806049  48.4738874  17.8551054  35.2825786  48.9322281  17.1171570
  35.6187774  48.0961084  18.3332431  68.5093068 105.2179790  42.6109695
  68.7875985 104.3124551  42.7481270  68.0458879 105.4506088  43.4155560
   5.0634669  90.3603690  87.9418195   4.3164967  89.9085825  87.5492001
   5.5680941  90.6825369  87.1949625   0.4469062  13.7142694  18.8156486
   0.7857277  14.2446864  18.0944777  -0.0004815  12.9847693  18.3868110
  81.8078136  36.7778921  35.4321456  81.4942074  36.0209560  35.9270525
  81.1128235  36.9540787  34.7979760  14.7908546  47.6403666  39.0199208
  15.2571346  48.3258677  39.4983578  13.9061405  47.9874516  38.9056659
  45.9699201  14.8999517  90.2622404  46.1754464  14.0340965  89.9096954
  45.8702516  15.4557674  89.4893459 103.6385345  96.6875648  47.1837807
 104.0597820  97.4808884  46.8529797 103.8459778  96.6780567  48.1181812
  93.5586262  23.6354685  16.5141523  93.2461548  23.9580774  17.3594451
  94.4955921  23.4898019  16.6448855 107.7392673  61.9528961  28.9491081
 107.2820759  62.5783968  28.3870077 107.2315311  61.1452103  28.8711596
   0.3034164  93.0891705  47.8413439  -0.1541375  92.3292637  48.2010984
   0.1881363  93.7727547  48.5013819   8.3877657  69.0098363  90.0582791
   9.3288992  68.8917988  89.9295178   8.0468844  68.1213885  90.1616615
 111.5895367  11.5836096  40.9673452 112.0483875  10.8277631  40.6007624
 111.3497734  12.1109462  40.2053308   1.0920860  13.6483467  41.3038015
   2.0099308  13.4213912  41.1545563   0.7005550  13.6494756  40.4303360
  81.1889744  58.8384914  28.4452796  80.2648258  58.5892773  28.4366488
  81.3638306  59.0784979  29.3552542  12.9654692 103.5074061  86.3994456
  12.2027205 102.9429787  86.5253872  12.6665304 104.1813534  85.7889849
   4.1743614  20.6210399  28.3984470   3.9934494  21.1623979  27.6300502
   4.3619587  19.7530735  28.0411315 101.4922047  42.3747683  36.9050288
 101.9148159  42.4196672  36.0473466 101.5687752  43.2618093  37.2564960
  42.8372763  91.3837617  90.1257031  42.3468111  91.9211238  90.7477296
  43.5295580  90.9816473  90.6503769  98.3291721  11.5663135  48.6697674
  98.3372307  12.2979581  48.0526257  99.1653538  11.6326928  49.1308689
  77.4569988  52.1934032  12.0675635  77.4188280  53.0643463  11.6722989
  77.2865629  52.3446274  12.9972494  62.5536489  23.4343100   6.4440560
  62.7194548  24.0335441   7.1718323  63.4186220  23.2667756   6.0699165
  78.4034681  53.3736753  31.0670257  78.3874702  53.3681870  32.0240760
  79.3287230  53.4745789  30.8435202   1.5580608  57.1241570  66.4799213
   2.2632553  56.9709969  65.8510447   1.5601207  56.3453674  67.0364475
   1.5744449  27.5544095  36.1519766   0.9689476  26.8953919  35.8124256
   1.6135742  27.3816681  37.0926476  94.4042873  54.5673704  12.2239244
  95.2786064  54.4653177  11.8479133  93.9949131  55.2526999  11.6957438
  54.1836165  62.2068267  83.6236817  54.8054503  62.6584482  84.1942925
  54.5688055  62.2728407  82.7498925  21.9821121  51.7477846  45.5517435
  22.8228809  51.8901682  45.1169157  22.2020008  51.2565327  46.3432980
  89.1859150  35.6539059  48.2922173  89.0175438  34.7686648  47.9693651
  89.4254494  35.5322647  49.2109442  95.8375454  89.5615768  34.3723679
  95.0037670  89.0920448  34.3964124  95.6404591  90.3761482  33.9099121
 110.1777077  51.9816494  35.8600068 110.2381802  51.0267544  35.8325815
 111.0781479  52.2747517  35.9997416   9.6826603  31.9288087  30.3650284
  10.3965904  32.5513840  30.2274203   8.9129020  32.4769616  30.5174899
   3.0773880  47.9647350  29.6137214   3.2799293  47.0956469  29.2674685
   2.2251083  47.8612709  30.0369740   3.3990146  25.3261566  13.4952581
   2.4766304  25.4226470  13.7322021   3.4566166  25.6801176  12.6077759
  84.9997044  47.5031567  23.2157087  85.2990532  46.5947104  23.2524085
  85.1097870  47.8278971  24.1093850  58.7172460  96.0835469   4.8342007
  58.6403512  96.7454160   4.1469973  59.6602296  95.9726191   4.9554628
 104.2109725  59.5448994  92.5287472 104.4423053  60.4351007  92.2636829
 103.2602212  59.5668023  92.6374748  89.7620010  55.9986639  14.9210691
  89.8663425  56.8450165  14.4862962  89.7860527  55.3591537  14.2092526
  17.6203440  84.7398513  74.6832455  17.4436568  84.5642846  75.6074691
  16.9894026  85.4185718  74.4434965   8.5803844  56.4817476  35.0877857
   9.4335319  56.4343500  35.5192113   8.7695076  56.3161325  34.1641879
 110.0052449 101.3500135  86.9957185 110.4685733 102.1447533  86.7312444
 109.2751977 101.6645973  87.5289187   3.9149334  30.1305437  12.7108872
   3.4088375  29.4761372  12.2293842   3.5925819  30.9705424  12.3842072
  90.9369183  16.6899002  29.9116373  91.1318779  17.3741567  30.5519652
  91.3786983  16.9768691  29.1124439  50.0593709  91.9158304  69.3673515
  50.1535463  92.4791253  70.1355028  49.1752957  91.5563429  69.4409037
   6.0999347   7.7022922  28.0913448   6.8623592   7.2503608  28.4528637
   5.3790428   7.0824933  28.2027054 102.8682423  21.0167670  14.8045397
 101.9403076  20.7820940  14.7940624 103.2944489  20.2882695  15.2560616
   1.1100246  15.6197584  11.4297009   1.5834285  15.0331986  12.0196772
   0.5451252  16.1344409  12.0060873   9.8503830  31.2933207  26.2489223
   8.9976074  31.7280555  26.2516022   9.6864082  30.4418087  26.6542292
 113.0362892   8.3117926  44.0834045 112.1858692   8.6655319  44.3439484
 112.8661537   7.3871690  43.9035177 103.3234310  38.8293147  43.8125658
 102.3675346  38.8759804  43.8300467 103.5219574  37.9122114  44.0016222
 109.0781307  26.4305234  21.9993138 109.7182941  25.8424306  21.5985990
 109.6067715  27.1013665  22.4314451  82.7880859  22.3513985  27.5378585
  82.2542858  21.5789008  27.3519969  82.5512505  22.9766393  26.8528652
   1.4557694  66.7971378  89.9235705   1.7386530  67.3217612  89.1745860
   0.8294962  66.1733835  89.5562217  18.2237007  14.7748005  35.8145857
  18.2833625  15.1136541  36.7078090  18.4986068  13.8607383  35.8863139
   0.6132175  37.9456782  47.1683455   0.9907772  37.2983575  47.7638817
   1.3280155  38.5586929  46.9965410 104.5998478  55.4081392  36.4681602
 104.7565842  54.4759607  36.6188526 103.9745617  55.4318476  35.7438111
   5.8747341  51.9693661  67.9479599   5.4514171  51.3925457  68.5838175
   6.0977413  52.7544689  68.4480762  22.2924041  17.2096794  74.8666704
  23.0912303  16.7310302  74.6452999  22.1066474  16.9599979  75.7718695
  91.8292046  55.6445169  28.4619164  91.7160130  56.1309671  29.2784858
  92.0379066  54.7530556  28.7411523   1.0928775  25.3866720  40.3144312
   1.2454845  25.5862761  39.3907976   1.1502601  26.2343478  40.7553196
   7.6101448  55.1098061  23.2933760   7.0096447  55.3476954  23.9998078
   8.1252529  54.3863010  23.6503458 101.6879654  55.4685879  39.1880941
 101.4598751  55.9903336  38.4186864 101.5366459  54.5631552  38.9169359
  84.0913677  20.7915473  14.3987131  84.4690704  20.4741192  13.5784614
  84.8347092  21.1552811  14.8797357  49.1981842  13.0174220  56.5607309
  49.9914505  12.6502883  56.9508123  49.4440986  13.2124186  55.6564426
  36.3021181 105.3084725  65.2165783  37.0770167 105.8197468  65.4497135
  35.6586550 105.5280798  65.8903420  93.8655090  44.4343853  22.9263377
  93.8343430  43.7361622  23.5803580  94.7510624  44.7905493  22.9982305
  30.2804042  12.8703403  60.0641727  29.4872524  13.3955383  59.9578094
  29.9885894  12.0878398  60.5318975  43.2958697 101.8728273  83.6401922
  42.9626463 102.4089020  82.9205948  42.5714873 101.8331020  84.2646307
  10.7921840  38.2952499  23.7262702  11.6829635  37.9670024  23.8487625
  10.7286026  39.0429163  24.3205643 110.8420563  60.2613783   5.2513212
 111.5462685  60.8998203   5.3640538 110.0546360  60.7921076   5.1308316
 100.6767464  66.2555933   6.2085247 101.5703869  65.9127283   6.1998057
 100.5961990  66.7352772   5.3841192 109.9103260  65.3191566   8.2385319
 109.8705482  65.4290962   9.1885650 109.9963379  66.2095070   7.8977805
  63.4758806  95.0907230   7.6527697  62.6369524  95.3752708   8.0153555
  63.8271713  94.4868851   8.3071411  17.7225257  62.1587753   9.8133963
  17.1252586  62.5993490   9.2089176  18.5825397  62.5274134   9.6116012
 105.6729221  64.3089581  34.6727800 106.4720345  64.5917177  34.2281508
 105.4242134  63.4994507  34.2266011 109.8059127  69.3289118  84.6666861
 109.9901578  70.2444308  84.8767144 110.6492659  68.8865977  84.7633541
  19.8895167  92.3648494  83.9511657  20.7978724  92.5405210  84.1966653
  19.8692702  91.4263886  83.7637770  22.1182968  21.4074111  61.5834665
  22.6705886  21.1108804  62.3068476  21.2510063  21.5166235  61.9734764
  16.2819435  18.0468631  35.2224207  16.5335704  18.5113239  36.0206652
  15.7556202  18.6792123  34.7331929   9.2590858  62.2626352  29.3349624
   9.4059421  62.7283764  28.5117054   8.6555435  62.8229856  29.8227882
  89.9077606  51.1268044  27.5628805  89.9449921  51.3592482  26.6350794
  90.8237648  51.0240746  27.8210044   3.9708187  63.2000780  42.6396322
   3.9065696  64.0822887  43.0054283   3.2962085  63.1724072  41.9611311
   6.0881806  24.2320030  85.1828343   5.9249306  25.0624053  85.6300688
   6.9984627  24.0223377  85.3917706  14.9893428  39.9022222  10.1348758
  15.6780006  39.2392373  10.0855601  14.2482044  39.4483471  10.5360532
 104.3391514  26.3258100   4.7850034 103.6892891  26.9936037   4.5660093
 104.6044636  25.9634757   3.9396888   1.1436226  79.7755861  18.6781251
   2.0380832  79.4407225  18.6146021   1.0632946  80.0738049  19.5841300
 109.2721081  50.9685040   3.8347220 108.8590240  51.7833996   4.1202658
 109.3564701  50.4496336   4.6346515  85.6404686  60.3604317   0.5308587
  85.1394367  61.1344910   0.7878289  85.2038193  59.6339655   0.9756254
   2.9487468  36.4648557  21.6652656   3.8426067  36.1433482  21.7830348
   3.0564167  37.3471594  21.3100481  76.9288873   8.4624355  92.0888261
  77.5248670   7.7199285  91.9902069  76.2251329   8.2893817  91.4635103
 107.1272945  76.8960953   5.9238845 106.6012287  76.6957521   6.6980654
 106.7605209  77.7149439   5.5904275  95.4389858  28.4677720  30.4917002
  95.3486919  28.3698702  29.5438099  96.0245609  29.2171216  30.6003857
  24.1325904  26.6050410  60.7567072  23.4021331  27.2145677  60.6511831
  23.7170936  25.7491374  60.8616638  25.0299121  54.4064856  24.1470671
  24.8132469  55.2930737  24.4355989  25.1181938  53.9055777  24.9579477
 104.8509598  64.6866274  39.8531437 105.7621098  64.9205399  40.0301170
 104.8743629  64.2653894  38.9939332  30.4707386  35.9025931  21.9254780
  30.2002861  35.6681442  21.0377169  29.7864772  35.5398321  22.4879885
  95.3710747  41.3277102  27.7259278  95.4298687  41.0416698  28.6374950
  95.6263351  40.5585241  27.2165942 106.9098663  33.1884837  13.3001697
 106.1000824  32.6978230  13.1597018 106.7928028  33.6044240  14.1542888
  70.5897427  50.9261084  12.2425508  70.0695753  51.6287851  12.6323044
  70.6814766  50.2795601  12.9424036   1.8545581  32.7713490  33.0749059
   1.7586757  33.6694384  33.3918786   1.2499572  32.2612882  33.6139083
 109.6777630  47.3098707  52.4990559 110.6252956  47.2210550  52.3964691
 109.4330788  46.5979052  53.0902147 104.9740696  62.4711275  33.0554032
 104.8704243  63.0536079  32.3029351 105.0992584  61.6034222  32.6711559
  98.8137817  29.2702866  72.9193163  98.3954239  28.4352875  73.1290340
  98.1887054  29.7140670  72.3461056  98.9406013  63.0130291  46.7971039
  98.8620567  62.5455046  47.6286602  98.7015247  63.9159346  47.0064592
  36.3949539  26.1627722  31.3899589  37.1235420  26.6184735  31.8115377
  35.6610347  26.2740111  31.9942927  26.8971397  47.7293587  17.7390480
  27.4955513  47.9152012  18.4626436  27.4159004  47.2068834  17.1273804
  92.2148609  56.1856985  52.0994425  91.2863445  56.4103699  52.0393229
  92.6513100  56.8155098  51.5257883  23.5746287 105.0789373  82.0455754
  23.0923460 105.8120363  82.4279428  24.4183634 105.4533785  81.7922938
 106.2751293  34.0647745  23.1101155 105.8599758  33.8618541  23.9483929
 105.8446884  34.8682642  22.8179526  91.5896844  11.1275594  89.1749305
  91.6857766  11.6589611  89.9652511  90.6774472  11.2511413  88.9126724
 106.2941933  43.8254976  32.1106434 106.1486244  42.8862762  32.2242546
 107.2443581  43.9131498  32.0348430  20.8554031  37.5332117  65.8697367
  20.7332088  37.7798128  64.9529552  20.0170375  37.7342510  66.2856245
  24.4996978  45.3284931  40.3400946  25.2102615  44.8754930  39.8860812
  24.8249580  46.2200975  40.4645061  80.4044628  55.8581400  27.4868107
  81.3132858  56.0686827  27.7011299  80.4582691  55.0403595  26.9922686
  90.5392075  34.0487242  32.7365017  89.9862862  34.7234797  33.1304693
  90.2639389  33.2358646  33.1604314   2.6501323  18.6755943  38.2252336
   3.4871055  19.0038109  37.8966188   2.8625156  17.8290594  38.6183047
  11.1787178  29.0965915  11.8002963  11.9575645  29.2424035  12.3372960
  10.4513790  29.1191435  12.4221504   1.0609008  36.4139557  38.8159370
   1.1139919  37.3229957  39.1109943   1.3326408  35.8992362  39.5758414
  25.4741336  29.5995212  30.3031516  24.5967437  29.4056082  30.6330204
  26.0482742  29.0046477  30.7855630   9.5069839  28.5869169  13.9309084
   8.6963798  28.1501651  13.6693811   9.4800998  28.5888028  14.8877287
   6.3773630  85.5677598  84.4379032   5.6293867  86.0908907  84.1496212
   7.0833681  86.2034457  84.5549292  98.0534840  60.3862667  33.2491922
  97.7395630  60.2466393  32.3557734  98.4201908  61.2703705  33.2387829
  56.3894749  59.5475721  10.2080178  56.6052437  59.0352154   9.4288093
  55.9788036  60.3418016   9.8662877  12.8105308  35.6060386  32.7848387
  13.1581642  36.4370680  33.1085229  11.8660404  35.6701016  32.9264593
  77.9522562  54.2370892  21.9683456  78.4894609  53.5732841  22.4007869
  77.1611261  53.7686920  21.7019844  90.5543137  53.5115290  35.9147668
  90.6582642  54.3918419  36.2759900  91.2857723  53.0144548  36.2809849
  98.4280014  36.4028978  38.4239340  99.3619442  36.3860202  38.6329746
  98.2578850  37.3072124  38.1602931  91.1678886  42.7883720  31.1829448
  91.5635681  43.6510992  31.0589886  90.2482796  42.9719830  31.3749075
  58.5399319  90.6675847   6.6883099  58.6125899  91.3038619   5.9768974
  58.3835340  91.1983902   7.4693405  80.8162488  16.6971857   4.7361290
  81.3416912  17.0643885   4.0252888  80.5387737  15.8406813   4.4110977
  39.8724606  77.8619559  18.9143192  40.6453330  77.4814780  18.4970200
  39.1697832  77.7366645  18.2765305   7.1841931  70.4408360  63.2279062
   8.1272602  70.2785254  63.2052660   6.9128859  70.1552629  64.1003036
   2.7144349  53.6215687  74.6763849   2.4568239  52.7081442  74.8009491
   3.5997584  53.6720228  75.0367832 107.4056111  71.0272789  77.6069641
 107.9714148  70.4899549  78.1613827 107.4723475  70.6288433  76.7391920
 107.5657512  99.3666251  13.3241570 106.8809892 100.0241454  13.4466278
 108.3732558  99.8740942  13.2426369  98.1357168  99.2194271  88.7739754
  99.0163408  99.3669891  89.1188812  98.2603000  98.5971260  88.0574131
  13.6132395  58.5227203  76.5442944  13.6937213  58.4147549  77.4919748
  14.4038177  58.1165695  76.1889648  63.1463601   4.3103296   8.3608925
  62.2412874   4.3301279   8.0499470  63.6638619   4.1158134   7.5794899
   7.2080427  41.7581511  64.0533257   8.1354946  41.7817116  63.8177204
   6.9591212  40.8391714  63.9546394  32.0846725  37.8176069  90.0386524
  32.3540115  36.9098306  89.8985481  31.4018273  37.7643538  90.7073212
  95.1466916  37.0354366  48.4585810  96.0070406  36.8497586  48.8348198
  94.5434080  36.4837599  48.9565086  32.9992366  53.1692648  83.7595367
  32.8818798  53.0455303  84.7014236  33.9041615  52.9047155  83.5941315
  61.5265370  91.8061693   1.5531361  61.4267302  92.0941026   0.6457436
  61.2156797  90.9008510   1.5527069  10.1584065  56.3743973  90.3705406
  10.8734822  55.8043337  90.0878239  10.5827820  57.2078276  90.5743313
  92.4684451  72.5523758  78.5207748  92.1249507  72.4730492  77.6308584
  91.7773102  73.0042648  79.0048838  58.4508719  22.3845274  23.6361229
  58.3656885  21.8622095  22.8385269  59.1611506  22.9974777  23.4463036
  36.7698193  91.4123399  11.4542973  35.9034697  91.0060842  11.4292442
  36.8782033  91.6894395  12.3640740 100.3579308  25.6323130   4.7680008
 100.8861782  26.3629324   4.4464791 100.2208425  25.8257515   5.6953728
  84.1549094  24.3258650  23.6723435  83.2241650  24.1736299  23.5087216
  84.4896586  24.6735985  22.8457462 106.0557531  68.2063389  60.6142521
 105.5092029  68.9315605  60.9168673 105.6552134  67.4273205  61.0001659
  51.2424733   3.4656078   7.9496777  52.0555259   3.8525946   7.6249897
  51.1163618   2.6852543   7.4098885  22.5518966  45.2744865  70.5563545
  21.7835045  44.7041130  70.5782223  22.6700401  45.4817390  69.6293592
  84.2633392  35.5488378  27.4466526  84.5189221  34.6315844  27.3489010
  85.0702401  35.9965021  27.7010929  22.3280671  47.3761541  13.6785710
  23.2154802  47.5479109  13.9935696  22.2002271  48.0047781  12.9681313
  84.9070309  76.2031317  87.5859642  85.3400181  76.1609983  88.4385967
  85.5844305  75.9462118  86.9603825  26.4945459  56.1656427  72.8454876
  26.4928174  56.3291788  73.7886143  27.3950458  55.9074736  72.6488161
  80.7025053  27.7153761  25.1911843  80.9924217  27.0318205  25.7952702
  80.4792722  28.4552366  25.7559883  78.4512399  63.0100393  64.5067596
  78.3617566  62.6061821  65.3699684  77.5820206  63.3626032  64.3160105
   3.9954755  67.4135971  90.7523441   3.1473482  66.9880962  90.6263924
   4.2377976  67.7272892  89.8810768  72.8461243  93.1364377  31.5009701
  72.1040703  93.3205969  32.0768845  72.5133777  92.4865658  30.8819592
  87.2136258  56.8519163  69.8180962  88.1479953  56.7877150  70.0157356
  87.0732830  57.7783489  69.6225166  13.8351476  29.4914269  85.3503799
  14.7131932  29.8725009  85.3433609  13.6295974  29.3805218  86.2786484
  45.2842595  19.1851694   0.7175266  45.3943898  19.6486170  -0.1127231
  46.1508538  18.8261587   0.9082043  66.5572567   0.8920271   8.9457714
  65.8000697   1.4746935   9.0041172  66.2940236   0.1081974   9.4280064
  63.8034225 104.8489125  25.4465687  64.5532204 104.9906762  24.8686993
  63.8210798 105.5927880  26.0487091   9.4094902  95.3730106  81.8544292
   9.5589435  96.1314297  81.2899017   8.5273880  95.5035591  82.2024059
  17.7783823  68.0305958  48.0668926  17.3265028  68.8318110  47.8021479
  18.5820353  68.3366156  48.4872770 101.6976859  23.2895262   6.5531838
 101.0610487  23.5586245   7.2153866 102.5197794  23.6914379   6.8340027
  30.9751422  97.3896916  14.3066513  30.3220201  97.9518492  13.8899433
  30.7380182  96.5035946  14.0330898  16.1364579  24.0378571  48.2169628
  16.7804134  24.1579366  47.5190115  16.1090004  24.8830104  48.6655092
 100.6178199 100.0733852  89.9591732 101.4562677  99.9829578  90.4120064
 100.4681383 101.0179424  89.9186611  25.4783058  57.9159594  75.0740480
  24.9165463  57.7338266  74.3207312  24.9851918  58.5519171  75.5923462
  73.5508454  44.4969732   0.8186447  73.8754338  43.7317926   0.3439152
  72.7430399  44.7359163   0.3641236  27.7524521   3.7485630   1.9633019
  28.3329107   3.5694820   2.7030480  27.8119280   2.9648287   1.4169895
  21.7570163  97.9001648   7.9819405  21.1074353  97.3075993   8.3602822
  22.5201023  97.3459847   7.8181660  92.3949362  33.5017092  27.6157963
  93.0314602  33.5760385  26.9047844  91.8819501  32.7235777  27.3976433
  15.3228569  10.7741082  59.2442656  15.1591897  10.4187405  60.1178551
  16.1417735  11.2615871  59.3335581  29.4442273  65.3196807   8.3352482
  30.2970774  65.3587837   7.9024136  29.6012706  64.8067470   9.1280090
  40.1136651  70.9458489  25.1385700  40.7020972  71.6891189  25.0061619
  40.3762049  70.5800171  25.9832394  14.4400693  97.5637467  13.4917271
  13.6108185  97.9565127  13.2191288  14.5060445  96.7607052  12.9750073
  55.1572300 103.6970933  31.3599789  55.6359578 103.4878380  32.1620094
  55.8382881 103.9240487  30.7268250  10.0478089  69.1421747  71.1463070
  10.2446651  68.2277632  71.3496065  10.5252504  69.3152905  70.3349400
  97.1077444   1.6551001  14.0434658  97.9685213   1.8827278  14.3948662
  97.2723915   1.4440281  13.1244576  69.3784686   7.3768312  15.5762970
  68.5929562   6.8570454  15.4059231  69.0524258   8.2668096  15.7099640
  99.7266247  22.1276552  36.4024651 100.5529167  22.2370560  35.9318268
  99.4920232  21.2099773  36.2643921  33.2747030  57.4221468  59.4640827
  33.7486434  56.9065189  60.1165724  33.9474821  57.9648685  59.0529251
  21.7398429  53.2576704  66.1095333  21.0711002  53.3103228  65.4267120
  21.5913486  54.0332413  66.6505241  80.2729748  58.0342627  58.5596085
  79.9579595  57.8235960  59.4385958  81.0761021  58.5339403  58.7063694
  15.6132805  48.4206629  60.4338503  14.7455990  48.3015156  60.0476313
  15.4439688  48.5553694  61.3662767   8.4392107  67.5087690  82.9155350
   7.5630748  67.1234226  82.9044056   8.6568910  67.6354456  81.9920540
  36.7063163 101.0510571  16.9351875  35.9307943 101.5599091  17.1715557
  36.3638306 100.1900895  16.6950428   5.6282914  77.0172501  88.2503700
   6.4612114  77.3746490  87.9425716   4.9669987  77.4560308  87.7152157
  79.5165490  27.8900129  31.5483105  79.7553851  27.7142603  30.6382000
  79.5318248  27.0308954  31.9701206 106.1627404  56.2973833  67.0213461
 106.4699183  56.6834354  66.2010765 105.6421243  55.5413485  66.7500544
   5.1429737  80.4994392  83.3246326   4.3198177  80.0137138  83.3768082
   5.0894469  80.9729767  82.4944973 100.3110515  86.7005157  82.4166298
 100.5734692  86.9714069  83.2963943  99.3658136  86.5636635  82.4801159
  87.3707666   7.9085524  13.1980335  86.7104687   7.9574663  13.8892948
  87.3677100   6.9901068  12.9284489  88.6975731  25.0997526   4.3146622
  88.1542112  24.8323471   5.0559342  89.5631303  24.7409756   4.5104229
  77.0171651  33.7195093  50.1513683  77.5878164  33.3328516  50.8155071
  77.5376143  33.7010557  49.3482411  57.1696688  17.7684862   3.1902134
  57.3676063  18.2873136   3.9698708  57.2952224  16.8611509   3.4680760
  58.0547191  19.8219854   1.3502991  57.7865709  19.0750439   1.8854630
  57.2337987  20.1869280   1.0199368  86.1484121  83.6925220  83.3032608
  86.0642694  82.9133987  83.8529110  86.7902850  84.2381001  83.7577629
  75.3109683  17.1102268   9.2272675  75.7874594  16.8799240  10.0248539
  75.9850152  17.4375421   8.6316502  92.3944058   1.0117227  13.4865772
  92.2189237   1.9408304  13.6355698  93.2878639   0.8826763  13.8048756
 105.0340877  77.6757669  85.6206608 105.7498454  77.9917145  85.0692081
 104.5591150  77.0572996  85.0655651  78.2209398  62.5199396  14.0560925
  79.0163584  62.9817564  13.7910187  77.5903176  63.2158644  14.2411148
  98.2458435  74.5790005  86.8423939  98.0618726  74.6084642  87.7812862
  97.6058160  73.9593267  86.4922523 108.9984299  25.5531389  25.3214943
 108.8414075  26.4956457  25.3785908 108.4610798  25.2650721  24.5835888
  89.7259856 104.5433409  40.5561459  90.5477858 104.3585093  41.0108101
  89.9936725 104.8121054  39.6773159  56.1555613  97.6574023   0.2282440
  55.6874204  98.4396441  -0.0635994  55.4643513  97.0363076   0.4578125
  91.0894205  18.1547100   2.7203667  91.9578542  18.4576351   2.4552452
  90.5236699  18.3711178   1.9791996  99.1384004  52.3093414  84.8426723
  98.1912409  52.4389410  84.7944736  99.3040167  51.5453291  84.2903233
  37.9465701  22.6760609  11.5587151  38.0534388  22.3181564  12.4400341
  37.3497225  22.0671684  11.1236870  36.1114931  44.7000837  46.4653635
  36.7785263  44.1146421  46.1068153  35.3093505  44.1777849  46.4653111
  71.1674629  31.0040838  10.2270996  71.9295104  30.4452307  10.0747788
  71.0858761  31.0433371  11.1800110  29.1147477  26.7144870  72.1532869
  28.7705798  26.9860744  73.0041790  28.9065111  27.4421977  71.5673542
  57.1546556  18.7409479   5.5445015  56.5554489  19.4817812   5.4531300
  56.7031028  18.1392509   6.1363613 108.9073350   7.6078112   9.2042648
 109.8186018   7.3326618   9.3048584 108.9405324   8.5637934   9.2393028
  80.0814615  14.1213686  21.7740070  80.4208310  13.2842476  21.4573204
  79.9744897  14.6508152  20.9837734  91.6068004  30.7289767  88.3335876
  91.3597010  31.6330957  88.1393147  92.4539278  30.8014083  88.7733078
  97.4449565  25.8107979   5.0811207  98.0016829  25.5642683   4.3425381
  97.5591280  25.1019747   5.7141792  22.1512103  63.8939190  79.5624065
  21.7461848  64.1339731  78.7290049  22.9893517  64.3562555  79.5633364
 110.4246615  47.0967770  86.8465233 110.5748905  47.0879793  87.7918148
 110.4562415  46.1750221  86.5903950   8.5802907  87.0745277  79.6085167
   8.8990939  86.6896343  78.7921476   7.8077126  87.5773430  79.3505859
  13.9165595  12.3353464   0.5323136  13.8308004  13.1535656   1.0215866
  13.7483314  12.5814373  -0.3772915   5.0102484  63.8936520  82.0017147
   5.3766966  63.8292980  81.1197758   4.2011702  63.3836508  81.9626999
 102.1398689  32.5965673  21.8768990 102.8511216  32.9977781  21.3775170
 102.2721030  32.9060633  22.7729809   2.1657011  98.7998772  50.8103991
   2.2985379  97.9293251  50.4352713   1.2936524  99.0585899  50.5123568
 107.4161245  70.3323633  25.3793251 107.2296097  70.9913427  24.7105896
 108.1040670  69.7890551  24.9948990  67.5876828  74.4817812  15.8007347
  67.6738675  73.7429792  16.4031994  68.0558194  74.2045099  15.0132095
  28.5098333  70.6378241  31.0347092  28.1958778  70.5365021  30.1361477
  27.9232592  70.0902421  31.5565502 110.9525835  89.4172955  53.0080509
 110.9120762  88.5965347  53.4989166 110.6837399  89.1792297  52.1207619
  15.8435071  88.6963272  87.3009396  16.5333128  88.5289860  86.6587543
  15.1820290  89.1919899  86.8182468  13.0875814  48.1135225  86.9136333
  12.2993648  48.1758165  87.4531364  13.1397128  48.9586687  86.4672661
  93.5807146  51.5043718  21.1532509  92.9433884  51.0652143  21.7164433
  93.7478294  52.3408491  21.5875351  99.8030816  49.4812012  89.6836758
 100.6267117  49.8475647  89.3617344  99.7750948  49.7301626  90.6075096
  14.7051656  70.6200123  62.8213692  14.8163021  69.6712875  62.8829765
  13.9251828  70.7350492  62.2785759  87.0793579  68.1151628  74.3577290
  86.5640877  67.3226166  74.5080471  87.0179914  68.6003876  75.1805449
  96.0141145  52.4119902  69.2394066  96.9451962  52.5785160  69.0924835
  95.9755586  51.4972544  69.5186996   5.2616644  90.5536556  79.7658300
   5.5196834  89.9334240  79.0839386   4.3077007  90.4847527  79.8037434
  76.0420344  21.0499651  15.0439655  75.9981803  21.0407049  16.0001194
  75.7646667  21.9330198  14.8000252   0.0283251  77.3184204  79.6367407
   0.0617048  77.5923014  78.7201691   0.5336555  76.5058899  79.6624804
  24.0667439  78.4117460  82.8888798  23.1544638  78.3242035  83.1651306
  24.2468429  77.6091337  82.3993778 102.8413011  40.3103239   5.6772816
 103.1000830  41.0756380   5.1639092 101.9323112  40.4827578   5.9227097
  48.3512522  25.0382709  64.2410994  48.6892486  25.3484821  65.0811958
  48.9625395  25.3883171  63.5930014  77.3698214  34.4030935  40.6098282
  76.7598792  33.7526876  40.2617275  77.5853428  34.9555952  39.8584854
 112.0181639  71.2891912  82.6343727 112.4429807  71.9066334  83.2297897
 111.1087260  71.5847158  82.5917339  27.5171018  85.4590034  75.1045752
  27.6401615  85.8388424  74.2346239  28.2792902  84.8934841  75.2290106
  18.3706430  15.1063520   3.8829243  18.7053254  14.8000891   4.7257816
  17.6010373  15.6296808   4.1066658  20.3077305  19.9752902  77.6704741
  21.0228325  20.3480720  77.1548271  19.8633290  19.3790721  77.0677614
  94.2952909  18.1697733   6.6916287  93.4945895  17.8482706   6.2772000
  94.8043145  17.3799402   6.8740856  54.5358790  25.4267501  72.3454094
  53.7718273  25.3672790  72.9189253  55.1138783  24.7241115  72.6428318
  79.8938577  23.0347568   3.3477318  79.5847367  22.5583488   4.1182625
  79.2774923  23.7607939   3.2518208   8.7225250  18.3340723  16.4691841
   9.2882446  17.9597361  15.7938587   7.8339961  18.1299717  16.1774838
  98.0921040  77.7600288  69.3789768  98.7290727  77.2797537  68.8499832
  97.8365169  78.5020304  68.8309479  70.6896182  34.2289144   6.5257084
  70.6026943  34.0508253   7.4621689  70.1178058  33.5864241   6.1056244
 110.1155810  35.2672625  81.9963264 110.4045804  35.3824472  82.9015541
 110.8210240  34.7712231  81.5809631 113.0384110  90.7926464  63.1353426
 112.7735105  90.1386547  63.7821484 112.5737338  91.5881920  63.3949709
  27.2032095   7.6340866  77.2600651  28.0970729   7.8553199  76.9987392
  27.0668746   8.1137370  78.0771160  34.8176328 100.8261473  13.5439980
  34.8978443  99.9233086  13.2362854  33.9529548 101.1057313  13.2433331
  64.7016849  52.1660406  34.3803990  64.8836686  53.0617792  34.0961849
  63.8378729  52.2154982  34.7898113  32.9435075  98.7783368  20.7234013
  33.6606792  98.8743718  21.3500321  32.6738054  99.6758730  20.5286514
  18.0779159  56.4507866  78.5741282  18.1709480  57.3927021  78.4314060
  18.7711155  56.0584831  78.0432749 109.0968843  66.2606573  88.2267284
 109.5410748  65.4150391  88.1646061 108.7301768  66.4032555  87.3541355
 107.8804161  26.0160238  27.8228867 107.8291394  25.1517231  28.2310307
 108.3160140  25.8597643  26.9849884  26.6270304  43.8104725  84.5469952
  27.0377064  43.5561705  85.3733730  27.2909617  43.6255884  83.8827324
  52.4819983 101.9618351   6.3011181  51.9918741 102.3413022   5.5717194
  52.7556146 102.7156432   6.8237412  18.8693273  85.1719856  79.2395020
  19.6201861  85.2717113  78.6542702  18.1464994  84.9265003  78.6620188
  40.3324152   3.0461406  85.5811691  40.8586610   2.3010826  85.8713245
  40.8738969   3.8114929  85.7742214  45.1192714   9.3944549  87.4635792
  44.4223715   9.9186611  87.0689011  44.8608363   9.3041229  88.3807945
   2.5978389  89.3962765  80.2143860   2.3139326  89.0880871  81.0750008
   2.3549293  90.3220177  80.1993752  71.4050825  18.9113123   2.9911244
  70.7152946  19.5291025   3.2335293  71.3918047  18.9009125   2.0340740
  96.1362650  59.9261171  19.1071713  95.5266239  60.5969984  19.4145500
  96.6793896  59.7283537  19.8701489  94.7478606  36.7844088   8.4582913
  93.8667990  36.5550310   8.7538445  95.0758149  37.3857386   9.1269314
  21.8409848  49.5874023  87.8098583  21.1777401  49.4075155  88.4761715
  22.6000357  49.0716982  88.0821037  74.4921117  26.6822893   5.7293904
  74.4514077  27.2562963   4.9644768  74.2479940  27.2449095   6.4643013
  16.2352347  93.9297485  71.9835758  15.4965293  93.4002686  71.6832447
  16.9661033  93.6579609  71.4284229  17.3534251  18.8362884  73.5071421
  17.6939560  19.6950817  73.7576151  16.4428140  18.8444042  73.8020182
  95.3987445  10.0815660  38.7562287  96.2275173   9.6142799  38.6512863
  94.8215522   9.6965868  38.0967819 111.7412831  24.6293384   5.9836971
 111.8487956  25.3034002   6.6547501 110.8313562  24.3458588   6.0725891
  14.8654187  76.7817783  60.6346941  14.3623543  77.4739599  60.2056885
  15.5697489  76.5805674  60.0185251  85.0311388  15.5067331   8.5962689
  84.3024112  15.6541044   7.9933846  84.6680631  15.6955892   9.4615757
  91.1564566  21.9895489  18.3700192  91.0750558  21.0639173  18.5998356
  91.6931512  22.3635322  19.0688145  42.5762701  85.0252628  77.6267004
  42.9143238  85.4210377  78.4300184  42.9641056  85.5445099  76.9222832
   2.6381403  58.9464331  76.8958569   2.9171762  58.2659912  76.2831879
   2.4603523  58.4767485  77.7107286  22.5802806  22.7163488  12.3911392
  21.9885305  22.9974157  13.0890476  22.0947078  22.0357782  11.9250118
 105.9287731  85.6318188  70.4666901 105.6916527  85.3380966  71.3463116
 105.9198682  84.8343372  69.9373674   9.3146518  30.4260523   9.8799717
   9.4574312  30.9935648  10.6374466   9.4037393  29.5379908  10.2258598
 103.5508619  99.5593357  77.2896957 103.7178902  99.7695255  78.2084751
 103.8993470  98.6746979  77.1791935  98.1598650  83.9250374  73.0081797
  97.6714872  84.2799568  72.2653770  97.6220451  84.1362000  73.7713242
  28.3354592  43.2195234  56.6343164  29.1079974  42.6604557  56.7171431
  28.0858135  43.1481409  55.7130051  39.1161931   7.9283523  74.1132116
  38.2192636   8.2587432  74.0622902  39.6070061   8.4718894  73.4968519
 103.9889674  99.3919945  86.0354519 103.0819188  99.2195225  85.7829666
 104.1061602 100.3295231  85.8820152  44.9456596  67.9365635  92.4597931
  44.7012138  67.2751713  91.8124580  45.5829048  67.4968147  93.0226135
  24.2748737  69.8611355  81.5019798  24.3852758  70.2936697  80.6552505
  23.3373308  69.6758175  81.5558338  96.0894607  58.6833286  88.7463379
  96.5390991  57.8385496  88.7261677  96.6115485  59.2183208  89.3441963
 102.4038838  51.7616367  60.6761789 102.1299230  51.7835760  59.7592831
 101.7414246  51.2249470  61.1113167  31.3148451  97.0889378  63.4403658
  31.3418484  96.2000561  63.7944555  30.9241605  96.9891739  62.5722408
  35.2652001  93.3292866  76.0971975  35.6092238  94.2203712  76.1593199
  35.7725620  92.9252052  75.3932571  99.0507175  39.3326075  19.4750797
  99.9343635  39.4141848  19.1162789  98.8881208  38.3896238  19.4991886
  49.6580076  77.0137596  87.6864910  49.0123129  76.3503885  87.4430847
  50.0157022  76.7056704  88.5191727  97.7876030  60.9022665  77.8068829
  98.3787034  61.2773037  78.4597063  98.0976044  61.2545776  76.9726086
  64.0817191  21.1607582   8.5806000  64.7610189  21.4679892   9.1809284
  64.5633008  20.7315571   7.8734314   9.1693223  77.5873137  80.9827614
   9.7449601  78.0580235  81.5855122   8.3564460  77.4660301  81.4734268
  38.8161829  97.9100163  15.3477108  38.5533773  98.6021502  15.9544384
  38.0452497  97.7674372  14.7985661  52.0577312 106.0258181   4.1188538
  52.8231109 106.0878308   4.6903336  52.3786903 105.5773718   3.3364784
  71.6547950  48.3262140  10.1942455  72.3589094  48.5600168  10.7990467
  71.1142625  47.7064306  10.6840717  65.0185181   6.7314243  85.8548260
  65.4889394   7.5398158  85.6512642  64.1506434   6.8561553  85.4708099
  46.7522192  95.6932449  86.3924217  47.2732687  96.3834667  86.8027210
  46.7044926  95.0035763  87.0544720  80.0042196  32.4769861  34.4912159
  80.3326054  31.6206724  34.2171490  79.0515937  32.3854620  34.4722664
   1.9006041  17.9033739  26.2634194   1.1214093  18.3586580  26.5824902
   2.4586442  17.8135044  27.0359146 100.9113003 103.7209875   4.8837959
 101.7205288 103.2126600   4.9384415 101.1897923 104.6285326   5.0064575
  85.6415654  44.6952533  76.9098043  85.8625937  45.5795764  77.2019577
  86.4100171  44.1701030  77.1332693  59.5436348  47.9275591   4.1616928
  59.1463460  48.7778360   3.9734947  59.4377186  47.8175909   5.1066410
  38.2972007  32.6721954  91.5616417  39.0538163  32.3020648  91.1069202
  37.5667036  32.1069526  91.3104248  78.3526559  36.0854132  10.4519188
  78.6439665  36.9652254  10.6912815  78.8018127  35.5081350  11.0693562
   6.4502704 103.7957191  81.5069866   5.7305551 104.3704414  81.2463379
   6.6376448 103.2767296  80.7248306 100.8190204  61.8377001  11.4932930
 101.0711862  60.9200079  11.3908970  99.9829842  61.9091875  11.0326779
 112.9018618  75.2671320  12.2775948 113.3596946  76.1076433  12.2902691
 112.0050980  75.4866583  12.0248902  55.7162774  43.3585071  88.4360218
  54.8849262  43.6731243  88.7911224  55.5324972  42.4624156  88.1540775
   6.4035705  28.0334742   9.4161141   7.1297982  28.0108721   8.7929642
   6.4406780  28.9115412   9.7953999  89.3947722  61.7894632   3.5810673
  89.1860463  61.5146334   4.4738876  89.3543412  60.9832460   3.0666649
   4.8859602 104.8337460  70.4690123   4.9377304 104.1394424  69.8121262
   4.3983513 105.5355549  70.0378132 102.6655461  52.5735552   5.1312744
 102.7138116  52.8828794   4.2267239 102.2572400  51.7101461   5.0676834
   0.5275443  82.6521952  29.1768562  -0.2176115  82.9455358  28.6525166
   1.2565711  83.1989557  28.8839352  17.0010448  66.9191980  77.9264498
  16.3188124  67.3540878  78.4379768  17.7783012  66.9556332  78.4839249
 100.5365563   5.5358886  85.4174328  99.7678138   6.0916805  85.2895164
 100.3280879   4.7273445  84.9494267  88.1072129  38.6541826  38.9752113
  88.0328740  37.7606565  39.3103230  87.4048890  38.7268049  38.3289063
  99.2934014  63.0304224  35.9127724  99.3425585  63.0761415  36.8676197
  99.8985769  63.7070257  35.6091225  77.9069043  41.2868785  65.0423574
  77.6434637  40.3695869  64.9689054  77.0887066  41.7778491  64.9666595
  49.1470648   4.4043636  74.9667263  48.6105789   4.2313194  75.7403374
  50.0042654   4.0372276  75.1827097  21.3922739 101.0575485  88.9925480
  21.0198784 101.7632103  89.5213127  21.5921378 101.4684105  88.1514263
 108.2423596  59.8784781  68.2538080 107.7084605  60.4397297  67.6915073
 108.6180402  60.4755640  68.9007902  17.1675968  65.3523254  65.7607317
  16.5395653  65.6667376  66.4110804  17.2523594  66.0761452  65.1401377
 103.5393097  48.3888609   3.9423287 104.0788032  48.1054956   3.2041657
 102.9491164  49.0440733   3.5700524  13.2596898  97.5105095  88.0994892
  13.6469173  98.3858776  88.0952644  13.8950539  96.9653034  87.6354885
  96.4010884  24.0537865  10.3243649  96.3649799  23.1227381  10.1051151
  95.8921720  24.1296989  11.1315071  91.9011606  74.9736864  28.9808476
  92.0381023  75.7751734  29.4859039  92.4963762  74.3367941  29.3762219
 101.5127756  48.0232984   7.1011173 102.4337603  47.8285295   6.9276535
 101.0900976  47.9647905   6.2442887  89.4603969  37.2606928   6.6928398
  88.8374378  37.5838453   6.0418999  89.6130516  36.3485224   6.4461052
  71.1619909   1.2475378   2.2136318  71.1630215   1.9371397   2.8774655
  70.4587163   0.6567461   2.4830830 110.5906711 106.2253094  84.7504044
 110.3659300 107.1338558  84.9510574 111.4940326 106.1297894  85.0521374
  96.8776773 100.7221127  92.3276329  96.1733006 100.3211212  92.8368473
  96.5938030 100.6367302  91.4174938  85.6695856  41.9048960  21.6704476
  84.8564489  41.6814501  21.2175572  85.8228590  41.1698610  22.2641289
   8.6620382  56.0682661  10.3481972   9.1960624  55.3412134  10.0281441
   9.1135410  56.8525392  10.0362694  28.7035346  99.6898746  89.7633934
  28.8951349 100.6146908  89.6077442  28.4261990  99.6535015  90.6788063
  10.4960155  77.8694868  89.2391205  10.1810551  77.5977659  90.1012135
  11.4496624  77.8692341  89.3215179  84.2469359   0.4876041  89.5515633
  83.9884187   0.2166747  88.6706543  85.0279475   1.0245132  89.4174862
  42.4227715  62.7230120  85.3342724  42.3936129  61.7763758  85.1954842
  43.2378292  63.0013275  84.9166012 110.1088478  47.3766024  17.8719437
 109.8950459  47.9612333  17.1447956 110.2945377  46.5348131  17.4558365
  34.4477315  32.8756523  81.0589314  33.5979132  33.2979011  81.1844349
  34.4643650  32.1730136  81.7087364  64.2715062  34.4933397  16.5271771
  64.1630508  33.5592348  16.7058670  64.7898878  34.5247633  15.7231056
  64.3332506   8.7761020  71.3216352  64.3209196   9.7203063  71.1648893
  65.2629209   8.5536956  71.3713741 103.1599666  36.1307508   6.9554436
 102.3204424  35.7831366   7.2564232 103.7612154  35.3881914   7.0131695
  48.5819221  13.5508060  83.5609531  48.8204301  14.4030857  83.9255810
  48.9247740  12.9165172  84.1905212 107.1415641  35.2831728   9.5385563
 106.4633013  34.6508676   9.7760212 107.4604203  34.9839289   8.6870682
  39.1365966  29.6949291  89.3243122  39.3974478  30.5919074  89.1154671
  38.4853119  29.4737434  88.6586285  66.6049982  13.3751010  92.1725655
  67.0498896  12.5976180  92.5099277  67.1954108  13.7163543  91.5008640
   9.9624264  70.3607607  63.4961987  10.5234635  69.5887947  63.5705996
  10.4624164  70.9686136  62.9514408 105.5103685  44.1586573  34.7127831
 105.9525253  43.8891775  33.9077389 105.8049633  45.0576765  34.8584187
  14.7638428  94.1296196  89.5561790  14.6844828  94.6876240  88.7825108
  14.8442841  94.7429752  90.2866268  87.8019680  30.9114916  14.9624645
  87.0302870  31.4255220  15.2001965  88.4200622  31.0626776  15.6775391
   9.2548517  28.6092455  16.5573799   9.9621871  27.9645616  16.5401375
   8.9553645  28.6119444  17.4665177  28.0729392  46.5167505  15.4344666
  27.5834945  46.3373739  14.6316635  28.7328485  47.1593744  15.1741230
  22.3456097  62.4476099  82.4244213  23.0712008  62.9520798  82.0566559
  22.1689773  61.7708254  81.7709732  15.9331039  33.1860048  41.6288101
  16.5109494  33.5616381  42.2930538  16.0202936  32.2396452  41.7429840
 102.3426391  59.0472204   3.2349598 101.6927602  58.3469755   3.2944595
 102.9272367  58.7720663   2.5287258  77.1086431 103.4967072   9.8039448
  76.2632490 103.6719973   9.3906510  77.5550414 102.9076369   9.1957009
  97.0060228  91.2550735  86.4436245  97.8045379  91.3863468  86.9548702
  97.1936117  90.4910469  85.8983707  39.1363569   1.5495204  76.3295460
  38.7025537   2.2113418  75.7909870  38.4191603   1.0757923  76.7507839
  97.8572439  66.5761662  84.1989517  96.9206260  66.5001249  84.3811512
  98.1784640  67.1983433  84.8515987   9.5040897  57.3338205   2.3501599
   9.1885999  56.4413816   2.2078240   8.7951949  57.8922254   2.0309651
  90.7146479  13.3542187   9.5191109  91.5088309  13.7734396   9.8504078
  90.0472202  14.0391046   9.5604050  71.6996195  26.8767816   4.5288956
  71.6700195  26.1176855   3.9465534  72.1245937  26.5529520   5.3231060
  94.8747350  44.6971018  12.7026856  94.5861103  45.4917795  13.1514752
  95.6426503  44.4088633  13.1960976   1.2242249  58.2616026   0.6379902
   1.1028627  58.2615263  -0.3114879   0.7169965  57.5098688   0.9443485
  93.2446660  51.9172842  11.7475140  93.9417912  52.5240976  11.4984715
  92.7315547  52.3960859  12.3984253 110.2863766  30.1140577  22.9528629
 110.5259420  30.4587347  23.8131153 110.8112408  29.3191511  22.8586781
  97.9463445  79.9058819  81.6133404  98.5365377  79.1707134  81.4477253
  98.5141383  80.5965614  81.9551182 101.6045167  29.7803862  18.1720745
 102.1153952  29.5356829  18.9436733 100.9504654  30.3958589  18.5031998
  58.3896780  95.8020782  67.9572010  58.9053059  95.2671814  67.3536730
  58.9988613  96.4749241  68.2611895  97.0055844  77.1400911   2.7287209
  96.9603302  76.3008863   3.1868946  97.5958802  76.9795019   1.9925129
  85.9438767  16.4508087  25.8283436  85.6356503  15.9046871  26.5515148
  85.3306504  16.2725193  25.1153195  48.1883527   3.4694385  77.6023245
  47.9990364   2.5477790  77.4264240  49.1190399   3.4844112  77.8255510
  94.6763195  44.0222151  10.2232277  94.7670008  44.1608412  11.1659825
  95.4460992  44.4460184   9.8436749   8.6205220  82.4370003  70.9549761
   9.3677545  81.8466091  70.8585072   8.9702070  83.3025074  70.7431793
  54.0871275   1.2434863  90.7978249  54.0984655   1.1988830  89.8417282
  53.1798375   1.4557075  91.0169601  81.3740333  34.3333609  18.4947598
  82.2168924  34.6488935  18.1687939  81.1558654  34.9295885  19.2111027
  82.5638409  52.7822096   0.2030098  82.3238410  52.6582224   1.1213028
  81.9666316  53.4611303  -0.1110638   3.3974794  16.6507036  15.0992596
   2.9159454  17.4693615  14.9802887   2.8917936  16.1682589  15.7532990
  18.7800741  87.0623970  67.2518110  17.8748453  86.7650890  67.1601486
  18.7870824  87.9340935  66.8564177 103.2765533  13.1655867  24.2525112
 102.7562143  12.5330812  23.7571156 104.1646887  12.8088934  24.2378533
  59.9140753  49.9244291   0.6000721  59.2906012  50.4008848   1.1482536
  59.5019461  49.0730936   0.4530537  81.7732163  25.0705845   0.2478420
  82.1350171  24.1947920   0.3831780  81.3406827  25.2815420   1.0752690
  31.5961838  94.2976093  84.9039459  31.8232775  94.9957371  85.5181694
  31.5057278  94.7408199  84.0603733  15.1772073  27.3885042  15.8342278
  14.3929294  27.1897776  16.3457405  15.1650193  28.3407099  15.7372868
  22.7258706  89.2332172  80.7664967  23.0601335  89.1937637  81.6625690
  23.4899306  89.4579697  80.2355289  82.2260334  90.5471117   4.9720966
  82.1125294  91.4957411   4.9132454  81.6639616  90.2833826   5.7006180
  99.4574954  40.9986193  37.8885758 100.1094033  41.6984636  37.8502571
  99.6378805  40.4607851  37.1175778  33.3429530  47.4413378  14.6343529
  33.6418823  47.7440912  13.7769138  32.9368594  48.2114870  15.0320923
  95.1604702   6.6012270  19.3216335  94.3309452   6.5828211  18.8443672
  95.5974938   5.7864649  19.0738403 101.7035066  65.9520960  29.8220778
 102.3908125  66.5994501  29.9794722 102.1738301  65.1663208  29.5435333
  10.9242809  28.8552213  86.4000511  10.5877388  28.3944607  85.6315041
  10.6445587  28.3192587  87.1421623  64.6798004  34.6193296  10.5958664
  64.1682507  35.3106577  11.0161221  65.3901221  35.0829393  10.1523125
  85.8924474  46.3351232   6.5784275  86.5432836  45.6332571   6.5834057
  86.2505449  46.9980223   7.1688187   8.9949802  95.1552851  26.4367020
   8.7732414  94.5977957  27.1825325   8.4061292  94.8674662  25.7391083
  88.7663867  19.3804962  12.5262558  89.2554774  18.8812859  11.8721783
  88.8487364  20.2911932  12.2432720 103.1742622  40.1313192  30.1280892
 102.5573065  40.7748396  29.7795498 104.0371181  40.5022032  29.9432766
 107.0767357  40.1782114  15.6172192 108.0271293  40.2718050  15.5522072
 106.8163897  39.7915918  14.7811711  22.9135442  99.9657917  84.5634651
  22.0648193  99.6373463  84.8601437  22.7529263 100.2728748  83.6711979
  10.8531249  62.4947023  88.0363464  11.5758491  61.8975782  88.2295895
  11.1816597  63.0465984  87.3266220  93.3796741  97.7882368  34.4534027
  92.8035642  97.0284635  34.3692696  94.0935125  97.6167185  33.8391983
  31.0116673  58.3062029  89.0302849  31.8416452  57.9188251  88.7522411
  30.4085851  58.1229496  88.3099079  11.0858300  30.2978212   7.1983254
  10.6805423  30.8092672   7.8986084  11.7065481  29.7249300   7.6485836
  94.0274288  38.4658319  19.2321312  93.3280410  37.8126795  19.2540466
  94.1337992  38.6717588  18.3034146  24.0097240  23.3810789  30.3283798
  23.1575015  23.2149965  29.9254334  24.2153838  24.2849714  30.0898182
  86.4112808  24.7153551   2.2601425  87.2764434  24.9149973   2.6177227
  85.8346345  24.6978456   3.0239498  81.5064617  49.9966986   6.8803322
  81.7765863  49.1011125   7.0832646  82.2275527  50.3525144   6.3610470
  70.0560165  13.6408710  73.0887985  70.5428673  14.2314433  73.6636305
  69.1904498  14.0420722  73.0108738  17.5739578  85.0228865   0.6601250
  18.3608583  85.4112226   1.0425198  17.9045776  84.3677790   0.0455010
  23.6918929  29.7200663   3.6713993  23.5126260  30.0527937   2.7919781
  24.2653278  30.3781683   4.0641987 101.4594795  34.0066416  37.3805248
 102.2509958  33.8904840  36.8549454 100.8757140  33.3047754  37.0926964
 112.5954677  42.3194963   9.5692074 111.9899441  42.4152643  10.3043282
 113.3184792  41.7998583   9.9205887  55.6940533   5.2559947  80.8741379
  56.3443137   5.3529548  80.1784420  54.8929418   4.9969482  80.4187870
  67.4117137  30.9463500  88.5667133  66.7133261  31.4810657  88.1891346
  67.1377731  30.0439739  88.4026718  48.6474752 106.5173054  82.3080254
  48.1832457 105.7996464  81.8771267  49.2152405 106.8782997  81.6271782
  95.9622432  40.7999515  64.0179443  95.3859664  40.8590221  63.2559395
  95.3714705  40.6350135  64.7528028  11.8846801  62.1445257   5.0314533
  11.3261560  61.3780767   5.1612484  11.3781122  62.8734476   5.3896343
 101.4766408   2.3825073  88.5198402 101.8307067   3.1976509  88.8753891
 102.2477580   1.8444442  88.3407021  87.2445320  87.3316193  79.4906044
  86.3849352  86.9710922  79.2730141  87.8588055  86.6267967  79.2853498
  16.7810396  69.8421842   3.5159027  16.5887597  70.7628138   3.3378708
  16.4567855  69.3763811   2.7451050  35.6200364  55.6672365   6.9809353
  35.2008823  54.9279005   6.5405762  36.2050775  55.2637369   7.6221478
  13.5332620  78.4717560  89.6331978  13.9870656  77.8679276  90.2211475
  13.8296616  79.3400049  89.9061871  98.5580684  73.5632212  10.0309097
  99.3692567  73.4713156  10.5306732  98.0833437  72.7479536  10.1927960
  11.9713557  93.4648418  87.9906368  11.7468154  94.3400669  88.3065414
  12.6242387  93.1455612  88.6135578  16.4380458  46.4044458  18.2841408
  15.9050277  47.0361597  17.8013813  17.1149257  46.9343836  18.7051308
  68.5481072   3.0931281  66.9279718  68.6496306   2.1421432  66.9673872
  68.2621885   3.3401393  67.8074455  43.5114002  95.1218128  80.2363491
  44.4614315  95.2203560  80.2992821  43.1687975  96.0031033  80.3852844
  11.7748311  31.2037069  17.4923527  10.8963922  31.1659319  17.1139919
  12.1143106  32.0577700  17.2248470  95.4367115  40.6611330  30.4664433
  95.7828213  39.8919660  30.9190190  94.5281221  40.7236845  30.7610333
  30.9982729 104.5896149  85.2897930  31.4496708 103.7473774  85.2340221
  31.6357684 105.2250481  84.9641418  73.2130361   4.8353481  79.0679979
  72.5932551   5.5577278  78.9666462  73.6662961   4.7887515  78.2262039
  53.2665208  36.2763960   6.5435040  52.4091008  36.6392309   6.3211834
  53.3929303  35.5612165   5.9199822 104.5766594 104.8768789  42.2010433
 104.0821029 105.6964094  42.1976101 103.9146687 104.1981966  42.3329270
 113.4257414  68.0690557  48.9453041 112.8419091  68.8250811  49.0069115
 113.6072447  67.8318579  49.8547184  82.3533965  24.1724300  72.9274225
  82.6681949  23.6276340  73.6487675  83.1035663  24.7199821  72.6957655
  97.3467566  45.4554636   3.2971680  97.3776247  46.3780577   3.0439865
  97.4966957  44.9780256   2.4811947  67.4131496  73.0803186  24.4184029
  67.7203371  72.2792417  24.8428261  66.7393501  73.4201223  25.0072586
  78.6987569  37.0407564  15.7587731  78.8255037  37.5770075  14.9760830
  79.4800867  36.4893705  15.8004391  19.5055488  54.4985372  30.9928333
  20.2910713  54.9489386  31.3032067  19.0473512  54.2380411  31.7918503
  62.7511502   2.2654056  63.2448101  62.3556472   1.5919113  62.6914406
  63.5600186   2.5031948  62.7915764  53.6780990   4.7720241  77.0882273
  53.9519358   5.5215644  76.5596104  54.3699778   4.6748256  77.7425098
  77.8180550  36.9715101   5.5733883  77.0469375  36.4478762   5.7911598
  78.5001998  36.6499502   6.1628925  41.9802141  66.3546801  90.3179741
  41.4800167  66.2441015  91.1265659  42.8731155  66.1014748  90.5521679
  78.6773301  16.3812827  80.3024673  79.5522118  16.7320632  80.1358414
  78.5347844  16.5274429  81.2376404  97.8313615  70.9025270   9.7514736
  98.1372835  71.0424311   8.8553345  98.5690142  70.4821474  10.1934921
   4.6705678  38.6984903  16.9274723   4.3048385  38.6341745  16.0452377
   4.0854076  39.3014986  17.3859512  14.4217256  35.4674513  30.4854309
  13.7877658  35.5266935  31.2001526  14.4793037  34.5314962  30.2933132
 104.2500235  49.2471582  10.0148785 104.9896671  49.7076876  10.4112065
 104.5652439  48.9882929   9.1489327  77.3303867 105.3065140  12.9232990
  77.9034377 105.7734044  13.5314572  77.2925545 105.8692725  12.1499264
 100.7881070  23.5955524  79.9776888 101.6697408  23.4492206  79.6348476
 100.8329869  24.4560718  80.3944969  80.3145628  58.8708860   0.5315315
  80.4780857  59.5039541  -0.1675499  79.9003591  58.1290037   0.0907528
   4.9987272  43.1323988  32.4994003   5.9277442  43.1035501  32.2706520
   4.8711589  44.0041429  32.8735935  16.2240651  73.7098963   6.4160835
  17.0522741  73.9007265   6.8564045  16.3654187  73.9851076   5.5102646
  44.4516563  96.1924744  85.1697159  45.2780342  95.9404182  85.5817795
  44.6390438  97.0329189  84.7516632  63.3415557  10.5776882  79.8431253
  62.7401019  10.8436775  80.5386353  64.1266251  10.2833843  80.3049469
  11.7585281   9.8907835  34.9184429  12.0600560   9.4718725  35.7245648
  11.5225128   9.1625101  34.3438637   1.7681173  23.9716131   4.4512951
   0.9110955  24.2576916   4.1352188   1.6704324  23.9285595   5.4025280
  97.5394489  65.3917677   6.6399109  98.4895565  65.3052790   6.7176830
  97.3053981  66.0551817   7.2890007  90.0590755  56.2109644  17.7330029
  89.6660628  57.0371992  18.0142414  89.7660746  56.1020739  16.8282711
   6.4005953  93.7462997  79.3009138   6.1344492  94.6656895  79.3124390
   6.7161179  93.5771465  80.1886463  24.5361328 105.4053879  61.5312719
  24.4190192 104.7001743  60.8947277  23.6479902 105.7100773  61.7172813
  27.5422529  34.1160185   9.6539509  27.1145204  34.5872766   8.9389813
  28.3512357  33.7793238   9.2687142 110.4712345  68.2121260   6.4282429
 111.0801341  68.3350737   7.1565067 109.8789550  68.9621527   6.4820206
 100.2566435  68.9306909  21.3203156 100.9827663  68.3232767  21.1788094
 100.5796553  69.5395262  21.9845593  19.3564323  53.4290773  26.1778366
  19.5398286  54.0284140  26.9012940  18.4288791  53.5643656  25.9840023
  31.5244079  90.4579449  76.7005014  31.8108320  90.3222084  75.7973051
  32.0775580  91.1695480  77.0228100   4.9170211  21.3975841   1.9123947
   5.4877237  22.1141321   2.1900379   4.0322259  21.7074615   2.1056378
  29.1003442  95.8294678  87.2501755  29.8639202  96.0644913  87.7773762
  28.9575481  96.5879536  86.6840172  20.9896421  96.1515236  79.0364456
  21.0030556  95.8876038  79.9564457  20.1586819  95.8136272  78.7024355
 103.1252767  17.3075754  10.7521832 102.8025009  17.3836262   9.8542607
 103.0235888  16.3800032  10.9655010 112.4068297  10.7038081  79.6219969
 111.8214804  10.4893994  80.3483772 113.1712878  11.1006534  80.0395489
  47.5545497  78.4027274  12.8529560  46.7093695  78.2495434  13.2753765
  48.2007755  78.1944783  13.5276806  12.3091948  47.6576424  75.0439548
  11.4173424  47.5174999  75.3620625  12.3517203  48.5951424  74.8554993
  32.9358635  91.1857803   3.7428581  33.0011571  91.4035351   4.6726715
  32.8703592  90.2310021   3.7244904 101.4897285   9.6863782  78.6812544
 102.0792256   9.2532563  78.0638933 101.2557457   9.0026093  79.3089008
  17.3205757  55.1145601  88.9194679  18.0981266  55.0780678  89.4765282
  16.9942486  54.2148256  88.9044666  20.3112864  13.6735237  76.2541485
  19.4960988  13.9298582  76.6854191  20.9450579  14.3373752  76.5259361
  40.7831130  58.9724888   6.0972035  39.8697066  59.2295058   6.2231457
  40.8455540  58.7585665   5.1663029   4.1307053  24.5354033  67.8934574
   4.2682278  24.2734098  68.8037729   3.2395062  24.2488360  67.6937675
   3.6758834  38.1181192  66.2958574   3.6066064  37.3301291  66.8348455
   3.1439471  38.7689996  66.7537117  42.2551346  21.5100288  49.3201923
  43.0602980  21.9981003  49.4926071  41.7642546  21.5603590  50.1403952
  23.6614442  53.1945419  78.7268114  24.3568230  52.5775480  78.4987783
  24.0670085  53.7904453  79.3566084 102.8228508  55.9015036  55.7868814
 103.2339404  55.3615236  55.1118565 103.5566233  56.2659645  56.2818336
 102.5763093  36.5288544  75.3263760 102.0849977  36.4866853  74.5059681
 103.4805541  36.3422346  75.0738955 110.1789011  55.6492424  54.3598795
 109.4895650  55.1656818  53.9046669 109.9901591  56.5687609  54.1725445
 104.8555724  30.3604674  88.8084507 104.7760330  29.5562410  88.2954979
 105.2601401  30.0815821  89.6299076  51.3062906   1.3824856  63.7623215
  50.8044767   1.9933656  64.3019867  51.1072063   0.5205882  64.1280127
  56.7893674  10.2370197  21.4658463  57.1885456  10.9571535  21.9540035
  55.8762957  10.2301008  21.7530453  86.8479751  25.5291796  64.5774555
  86.7061137  26.4138651  64.2406464  87.1692847  25.6611347  65.4694080
  31.7974591  49.4270277  63.7609291  32.0012593  50.3613043  63.7181950
  30.8412051  49.3893337  63.7412024 109.1987802  26.5730023  39.2467642
 108.2494353  26.6148567  39.3617606 109.3180464  26.2996745  38.3372045
   1.9504255  36.2795639  74.5012140   1.1154123  36.4556217  74.9347925
   2.3441277  35.5755305  75.0165462 106.9470744  17.6259875  65.1699305
 107.6751189  18.0669832  64.7320890 106.2047516  17.7429914  64.5770597
   1.0913160  61.0037231  76.4880228   0.9862620  61.0667562  77.4373531
   1.6960064  60.2724934  76.3619947  87.8101824   1.5896414  67.4458790
  87.3838685   1.5955149  68.3028841  88.1834577   0.7114895  67.3700666
  31.3632626 101.0612519  20.7404625  31.4261032 101.7419846  20.0704777
  31.7553175 101.4552577  21.5197479  11.6868901  13.2988775  43.3812666
  11.9334495  13.8636827  44.1136837  11.8959427  12.4139416  43.6802959
 106.5572452  79.3046696   4.9829495 106.5041923  80.1986296   5.3209698
 105.6811570  79.1252906   4.6416008  26.2537564  73.4190137  10.2127754
  25.3298212  73.5409100   9.9943363  26.6071332  72.9097004   9.4834244
  22.5232053  67.0705032  79.2860222  22.4093056  67.7678728  78.6403179
  23.3692694  67.2568321  79.6930742  43.2853670  98.3543952   0.4649746
  43.0062015  98.0623515  -0.4027832  42.7365217  99.1166718   0.6492054
   4.3805248  22.7575612  83.2843399   4.8694280  23.1664467  83.9984989
   4.1287154  23.4870386  82.7180481  20.9165382  60.4135513  63.9082670
  21.3155627  61.2570143  64.1217470  21.4945054  59.7661257  64.3120289
  42.1786642  54.6816206  91.5101719  41.6555738  55.4038858  91.8579388
  42.3324394  54.1124821  92.2642708  56.6858433  40.6181669  12.3371243
  57.3632716  40.3708267  11.7077208  56.1601208  39.8258328  12.4469125
  98.8719870   0.5118162  17.4286663  99.7061063   0.2045566  17.7837193
  98.6900784  -0.0796955  16.6984188 107.7345400  11.7236364  90.4586220
 107.0618020  11.0638452  90.6269360 108.5620405  11.2615693  90.5926704
  41.3295830 100.3968651  10.9494888  40.4347158 100.0859005  11.0863983
  41.2256987 101.2334235  10.4960358  29.6365070  48.5334301  75.5415916
  30.5113983  48.6284447  75.9181118  29.1003466  48.2023001  76.2620926
  16.3523114  37.0561504  72.8342247  16.2702811  37.5571275  72.0227289
  15.5589569  36.5215945  72.8669262 102.0821260  18.9997911  59.8079491
 102.7886818  18.5061228  59.3916512 102.2116969  19.9003685  59.5106173
  86.4027260  23.8551140  76.1482334  85.7320975  24.3527174  76.6160822
  86.9905613  24.5213795  75.7921839  32.2963119  35.6251407  70.6967878
  32.7350974  34.8232603  70.4127359  32.3461580  36.2069798  69.9383593
  97.3886894  33.0857873  51.2781811  97.1362637  33.6600208  52.0012093
  96.6325985  33.0932045  50.6912327   6.7207175  48.4559965  88.6623001
   6.3524300  48.9616632  89.3867970   7.1463329  47.7091932  89.0834522
  15.9412837  90.5604172  63.0377531  15.4360008  90.1589966  63.7447071
  16.7209864  90.9099197  63.4691954 109.0232439  26.7536759  81.3348103
 108.9638479  25.8670187  81.6905403 109.7099017  27.1739769  81.8525791
  24.1696715  39.0456820  61.5504217  24.5434642  39.4021940  60.7445621
  24.3821263  39.6950960  62.2207594 105.8746432  39.3737698  56.5175915
 106.3033251  38.6665463  56.0356188 105.1738505  39.6692538  55.9363794
  44.0880489  69.9276066  52.3103476  45.0123644  70.0021410  52.5476551
  43.8145113  70.8264589  52.1273851  99.6871792  74.6701860  45.0919056
  99.4203912  75.4389048  44.5877886 100.5599926  74.4579697  44.7611618
  26.5627099  56.8270518   3.2566273  25.9546591  56.8771924   3.9941799
  26.2745667  56.0609667   2.7603161  36.2380910  55.9124756  71.5884304
  35.8799624  56.7466736  71.8918991  36.4654398  56.0686970  70.6718349
  51.0826171  78.2836063   3.6280167  51.4453007  78.9625056   3.0589878
  50.1775635  78.1823857   3.3332836 111.4378104  20.9226799  74.2577887
 112.3887824  21.0142899  74.3168736 111.2829833  19.9808371  74.3298626
 100.6133972  29.9738145  60.6400871 101.2683235  29.3370843  60.3539419
 100.8751009  30.7924414  60.2186680  93.7986802  34.4580269  66.3570404
  93.5485719  33.5341358  66.3467026  93.0148767  34.9216580  66.0622025
  77.5982396   1.4259035  22.6857388  78.1079506   0.6253273  22.8102314
  78.2080923   2.1331913  22.8956330  18.9278353  51.3635827  30.3661644
  19.3503559  51.3227969  31.2240994  18.9998258  52.2822584  30.1071560
  65.0432993  82.6317103  13.6777413  65.5956460  83.2149990  14.1982472
  65.6203867  81.9069488  13.4370720  15.4470134  59.9938107  83.4373760
  15.9723866  59.7191620  82.6858616  15.5069745  60.9491301  83.4352303
 108.8015990  54.3248081  69.8415613 108.8904370  54.5833349  70.7588959
 108.8999726  53.3727169  69.8504353  42.2172044  67.1205516  19.1565430
  42.1224252  67.7154465  18.4126675  41.4119432  67.2372742  19.6606934
   3.1230083  51.2610197  83.4006119   3.2550618  51.0959244  82.4670506
   4.0078339  51.3306379  83.7590313  99.1060232  29.1414952  49.7462320
  99.6331678  29.6996665  49.1745758  98.4125470  28.8046527  49.1789103
  13.3566082  37.5598168  85.5076504  14.1298819  37.4616766  84.9520874
  13.6494291  38.1158638  86.2296581 106.2752645  17.1325707  67.7476454
 106.8847428  17.1312737  67.0095634 105.4623185  17.4858582  67.3863459
  88.6629532  23.8612723  84.4455051  89.5629118  23.5382342  84.4897270
  88.5781167  24.4384909  85.2043629 101.2356029  33.8270092  53.1948996
 101.2684332  33.7039208  52.2462130 101.6777991  34.6628547  53.3434153
  15.2383328  73.9578278  10.4292309  15.4370905  73.1860967   9.8989880
  14.2826296  74.0112145  10.4256642  21.9016171  59.0223837  59.8845387
  22.5401974  59.4058800  59.2833900  22.2806716  58.1784630  60.1301956
 107.1812706  48.0757618  51.1997032 108.0145244  48.1846094  51.6580391
 106.5694283  47.7924204  51.8791151 100.1520358  66.0923481  76.9290400
 100.0241016  66.0450172  75.9816122 100.9536360  65.5938482  77.0876837
 100.8615683  44.4253874  57.7145004 100.6642531  45.3551292  57.8279829
 100.0217055  44.0288162  57.4830008   3.8042909  33.6945605  40.4911947
   3.2281405  33.4160805  39.7793436   4.5205536  34.1546345  40.0535488
   9.8665625  44.2601538  40.0834227   9.9432731  44.7808504  39.2839098
   9.5909464  43.3950520  39.7803211  29.7033513  91.4303024  21.6728985
  29.1626609  92.0934184  21.2437546  29.0746642  90.8477528  22.0990669
  77.3049711  22.9180193  71.7457581  76.7135929  22.3008633  71.3149166
  77.7480148  23.3673978  71.0260344   0.9255928  24.4817543  71.2476349
   0.2953708  24.0741301  70.6535912   1.1772601  25.2944255  70.8089304
  89.6637176  43.8100147  65.1322031  89.3966411  44.4625282  64.4848013
  90.5060552  44.1268969  65.4582119  23.1508220 102.0247109   7.5841534
  22.7724648 102.8834231   7.3952305  23.0904413 101.5488799   6.7558014
 103.2960926  67.8880262  79.2220163 103.3007775  66.9731712  79.5035315
 103.7250845  67.8775311  78.3663940 110.4894222  56.1689043  84.6522903
 110.7799078  56.6972685  85.3957176 109.7887783  56.6836548  84.2518330
  85.4542680  10.7141334   2.5464165  85.2356650   9.7893555   2.4313938
  84.8539056  11.0193569   3.2265961  87.3320316  79.6068907  60.2796745
  87.2926854  79.4696331  61.2261629  86.6280483  79.0612650  59.9290609
 100.4737554  68.0492115  69.6046209  99.7873615  68.2705545  70.2339888
 100.0135110  67.5974751  68.8972712  18.6427379  52.7339506  57.3932266
  18.0381155  53.2999372  57.8731441  18.2335985  51.8690157  57.4201202
  12.7918851  72.6617002  73.0236769  12.2132730  72.4153709  72.3020411
  12.2002232  72.9654503  73.7120867  26.2832952  66.7108345  86.2814999
  27.1063542  66.7962265  86.7626572  25.9756064  67.6105547  86.1716747
   9.2985082  39.2676115  58.4704113   8.9774460  38.4564567  58.8643360
   8.6121404  39.9097896  58.6513519  80.6293686   5.0964100  12.1866333
  79.9865939   4.4093258  12.0106041  81.4766528   4.6720917  12.0513737
  26.3839746  58.0545521  64.5272875  25.9783459  57.8033352  63.6974764
  27.3228121  57.9414463  64.3788862  22.1493936  49.4536829  75.8451319
  22.3564887  50.3623915  75.6269646  22.2692323  49.4017410  76.7933798
  95.2893613  37.5847340  65.9079266  94.5666896  36.9834924  66.0881567
  95.3700553  37.5831366  64.9541330  30.9509826  53.1678724  67.3980045
  31.1258841  53.1532240  68.3389759  30.0882530  52.7630234  67.3084164
  17.2171951  94.2185385   4.8231041  17.0644403  94.6673758   5.6546318
  18.0793763  93.8150723   4.9235642   3.0541155  27.4816751  84.1086388
   2.6806021  26.8328786  83.5121632   3.9855504  27.2642994  84.1461754
  81.5572427  35.6181216  64.8471165  80.6297801  35.6958699  65.0707293
  81.8959831  36.5106869  64.9164772  22.8334737  76.5217638  74.7156668
  22.1386790  76.6239691  74.0652466  23.4232736  77.2580910  74.5538092
  18.3511937  47.8278637  53.8871670  18.7916517  47.0906639  54.3099737
  19.0364397  48.2520723  53.3707190  10.2168107  71.0521412  66.4511490
  10.0541198  70.5302668  65.6653929  10.5553138  71.8841076  66.1202669
  66.5077426  19.1734297  26.9041931  65.8203609  18.5854656  26.5910923
  67.3158409  18.8130886  26.5390122  78.6361409 105.9993250  32.5113880
  79.2521573 105.8670552  31.7907917  77.8193808 105.6065257  32.2034180
  67.7269443   3.8352281  19.5466816  68.3373298   3.1348450  19.7771656
  67.9401876   4.0495283  18.6384785 107.4322747  99.5686913  77.5103378
 107.2490542  99.4725704  78.4449053 107.4711756 100.5147457  77.3699570
  39.7799134  47.2328329  65.7928324  40.3237915  47.8349543  66.3006496
  40.1944590  47.2049046  64.9305058   4.9761844 101.2997658   6.7488491
   5.8599568 101.5409548   7.0263493   5.1034833 100.8331759   5.9228146
  17.9247785  71.0451841  81.8405819  17.9592252  71.2168884  80.8995438
  17.5527239  71.8431377  82.2161865  23.4242010   8.3679926  79.6913862
  23.4372091   8.3691919  78.7342739  22.6335526   8.8563383  79.9207878
  22.0404243  73.3618689  59.4519854  21.0922241  73.3590174  59.5829105
  22.3554730  72.6186562  59.9663877  22.9909635  55.7323647  87.0024490
  22.6831841  55.6853437  87.9076004  23.0206871  54.8208046  86.7119217
   2.5851384  40.5045795  79.1319275   1.7111349  40.3144121  79.4727898
   3.1141466  40.6755161  79.9111366 109.8837541  76.8074560  75.5379248
 110.5574493  77.3811674  75.1729345 110.3726976  76.0893106  75.9397125
   8.3818197   9.2858589  56.5105629   7.8420949   9.6903765  57.1897507
   7.9648042   9.5432526  55.6883240  17.9911029  60.1428938  87.5235081
  18.1586683  59.4953966  88.2082653  18.5668695  59.8847580  86.8037224
 107.7416490  61.8638945  73.4673023 107.9211085  62.6502275  73.9827681
 107.9279731  62.1216393  72.5644827   4.8958814  50.4984283  70.3889608
   4.5975327  49.7354984  70.8840942   4.2145696  51.1560822  70.5287457
   3.3628306  67.8673792  72.7664661   3.9083982  67.9245615  73.5508871
   2.7144974  67.1945047  72.9741669  37.7732129  91.2766559   2.3490536
  38.0766498  91.6276820   1.5118324  36.8979023  91.6474707   2.4611199
  99.5339058  86.1073303  75.7094526  99.5135580  86.0412502  76.6641521
  98.9070164  85.4487038  75.4103661  32.4499369  35.4407048  66.4836168
  31.5737438  35.5453229  66.1127090  32.5150371  36.1316729  67.1428251
  51.8936551  71.7904670   1.4245617  52.0499338  71.1486561   0.7318222
  51.5981925  71.2696750   2.1713650   2.0429252  36.3663030  80.1518726
   2.7537963  35.7317948  80.0607967   2.0112893  36.8135643  79.3061829
  37.8628421   5.4227531  81.3351154  37.9581881   4.8361057  80.5847931
  38.6967874   5.3545153  81.7999840  21.8988729  31.9650960  77.5969553
  22.6674080  31.6915846  78.0977345  21.5745354  31.1585164  77.1963739
   6.6219008  60.2746725  59.7584486   6.8604225  59.5844698  60.3772879
   6.8290573  61.0891867  60.2165747  63.0520572  22.9987318  22.0504963
  62.3969342  22.7374298  21.4033806  63.8214733  23.2326919  21.5313732
   7.3294693  48.3351469  83.9747715   7.4684530  47.9307222  84.8311329
   7.9675454  49.0478086  83.9400578  87.6495792  16.9121344   2.1026432
  88.2225002  17.3100979   1.4471924  87.1897175  17.6518614   2.4995911
  23.4943390  85.8577633  68.4271765  22.6117849  85.6825733  68.7537289
  24.0630460  85.3100204  68.9682770  12.8028274  68.6253595  82.3469830
  12.8746808  68.1862068  81.4995098  13.6943817  68.9124393  82.5443363
  99.9629460  54.2332506  70.0010252  99.5037065  53.4596968  70.3280544
 100.8643959  53.9391375  69.8701859  36.9713630 103.0478938   8.1406986
  36.4386190 103.8268502   7.9805767  37.2042005 103.1033261   9.0674889
  53.1274366  25.7229233  87.8065205  53.9166355  25.9735513  88.2867050
  52.4938631  26.4105344  88.0114746  76.4948981   0.9502632   0.1902783
  77.2981368   1.2221271  -0.2537239  76.4934049   1.4473326   1.0082924
 112.9227808  29.6109247  54.1309690 112.0392416  29.2449403  54.0903854
 113.3326686  29.1655898  54.8725224  97.6244603  43.1963348  73.9544153
  98.0927204  43.8982487  73.5024452  96.7013131  43.3628988  73.7639189
   3.9329055  77.3984385  60.1705122   4.2731994  77.3993921  59.2758417
   3.9063174  78.3228016  60.4176378  17.4864042  56.3995886  86.4251328
  18.4236383  56.5321350  86.2827969  17.4095476  55.4778099  86.6713905
 102.5536321  55.1004219  34.7538519 102.1452056  54.2691183  34.5122814
 102.7764843  55.5096817  33.9177465  44.4956207  49.7210884  92.2731113
  45.0689793  50.4842615  92.2020149  44.1664219  49.5852327  91.3846207
  32.2730620  77.6819427   6.6895306  32.8829975  77.4532206   5.9881794
  32.4493963  77.0414288   7.3786461  85.1297401  56.2760592  78.9512014
  85.9616969  55.9572792  78.6012602  85.2063726  57.2296715  78.9198351
  44.6870804  80.0901985  52.9038191  44.7128820  80.9342194  53.3545876
  44.0163946  79.5904684  53.3693123 101.4623164  43.0727577  52.9869890
 100.9587716  42.2664642  53.0990648 101.9035767  43.1982994  53.8270855
  44.7659011  86.0832984   5.2314770  44.8985184  86.7739875   5.8807861
  45.5907483  85.5976708   5.2264988  16.9613647  83.5838604  67.6852894
  16.7303765  84.4621658  67.3828793  17.2532201  83.1278038  66.8959427
  26.9850683  57.2762060  83.4567547  26.2283611  56.9154215  83.9187813
  27.0333695  58.1860542  83.7501335  92.3438428  72.8932476  39.5047426
  93.1585215  72.5308323  39.1566300  92.3616074  72.6715183  40.4357386
  12.7875137 102.7839155  74.7624826  12.1021270 102.8375111  75.4285192
  13.4726428 103.3744026  75.0757837  65.5623246 101.8895466   6.1133969
  65.1785756 102.1438582   6.9526207  65.8709908 102.7115519   5.7322609
  42.3542356  40.2256298  56.7814970  43.2734156  40.1225281  57.0278931
  42.3640442  40.8899546  56.0924292   1.0861202  69.1345882  83.1569195
   0.2235169  68.9290667  82.7964973   0.9027763  69.5070410  84.0194130
  21.8663883  47.6164818  90.0460720  22.5111890  46.9901228  90.3749180
  21.0654950  47.1028948  89.9410629  26.9001007  47.3422384  66.9328833
  26.8346500  48.0873013  66.3355303  27.7604413  47.4376869  67.3414660
   6.4061737  48.2288694  76.4922190   6.8666345  47.3896980  76.4935780
   6.7614669  48.6958027  75.7359314  97.6224567   6.0842735  28.1710159
  97.9466106   5.7771427  27.3243630  96.7220451   6.3588173  27.9974663
  25.7636142  77.0273352  89.6268082  25.9568048  77.4538040  90.4616928
  26.0114098  76.1127138  89.7620678  17.8003716   3.0758250  55.7462978
  16.9195068   3.3428395  56.0089970  17.6582408   2.4180213  55.0656176
  20.0875425  68.4694767  27.6958299  20.7684350  68.3989811  28.3648968
  19.3433142  67.9902124  28.0600595  92.8128503  35.3912759  49.3850899
  92.4635814  36.2780166  49.4741583  92.8749846  35.0669622  50.2835274
  22.4223495  88.8829327  57.1392679  22.4971890  88.6145973  58.0550337
  23.3275294  88.9669991  56.8395758  30.7512832  79.9520834  16.7230808
  30.4019166  80.2914317  15.8990490  31.7009563  80.0268085  16.6294300
  34.9471951  53.1092739  74.5356894  34.2561245  52.4532700  74.6268702
  35.7050014  52.7212477  74.9731827  20.7065773  70.8998680  86.6084194
  20.1211858  71.2951851  87.2543812  20.1472950  70.7305670  85.8502769
  22.1937084   6.4762437  67.0151377  22.1863556   6.1914641  67.9289627
  22.1701908   5.6631082  66.5106678  16.2806547  63.6360788  75.1399612
  17.1050966  64.0807915  75.3368330  16.4508331  63.1665659  74.3233633
  79.5762120   6.2256653   3.2772457  78.8674562   6.3169605   2.6404106
  79.1438316   6.2950546   4.1284001  75.2568249  18.6984522  26.1242783
  75.9166813  18.0268032  26.2966454  75.1664118  18.7064297  25.1713955
   4.6157187  38.0028081  91.1664677   5.2820706  37.4362469  91.5553284
   5.0741148  38.8238621  90.9876537  24.1760087  31.6568160  79.9106693
  23.7888503  32.5320101  79.8912525  23.5341096  31.1212516  80.3768921
  28.5072899  41.0796022  86.6361904  29.1386390  40.8913565  85.9417915
  28.3283496  42.0159531  86.5498257 109.4925053  75.9965801  82.8037453
 110.3976582  76.0746050  82.5023460 108.9992233  76.5890169  82.2363567
 104.5757724  33.8263399   7.0220577 104.9100973  33.4159166   7.8195583
 104.7426035  33.1827623   6.3334286   3.0029905  57.1706581  74.7769928
   3.4443048  56.3365126  74.9372292   2.0955923  56.9296169  74.5905495
  13.1907117  61.9902277  81.0926056  12.7811980  62.7859926  80.7530689
  13.6158609  62.2672224  81.9042397  48.2488871  52.2690439  67.0459604
  48.7182570  51.5348434  66.6498756  48.1063938  52.8801537  66.3231421
  66.6616512 102.0211585  41.8229210  65.9112073 102.6073916  41.9198429
  66.7211820 101.8620284  40.8809197  50.8503367  21.2929470   1.2555611
  50.7280709  22.1926624   1.5585434  50.8347894  20.7667953   2.0550358
  15.7861733  39.4061542  74.2221594  16.5824270  39.8333621  74.5379210
  16.1012113  38.6876798  73.6737251  82.5692724  34.6580362  57.3434639
  83.5143898  34.6673584  57.4947834  82.2179054  35.2755141  57.9849434
  86.7656372  65.2774715  85.6181526  86.1341999  65.9528780  85.3704739
  86.2840913  64.7078133  86.2180138  29.5526803  82.1582944   1.8289101
  30.3027869  81.6512854   2.1395790  29.3893714  82.7951486   2.5245964
  42.4303509  83.6977203   2.7879727  41.9615922  84.4313271   2.3900807
  42.7051277  83.1585414   2.0463383  87.2141550  28.8285232  58.9973450
  87.9908060  28.3110762  58.7845230  87.5229381  29.7345495  58.9985466
 103.3877496  82.5611115  57.8776598 103.0265163  82.7939987  57.0223761
 102.7472185  82.8932095  58.5066700   5.3596908  44.4637012  68.5518885
   5.7974333  44.1561174  67.7581596   4.7913015  45.1732206  68.2523108
 105.2444302  57.3742104  84.4242764 104.7170012  56.7860460  84.9647522
 105.2011840  58.2173300  84.8754025  63.4825159  62.9112799  19.2443669
  63.8385177  63.7809665  19.4264137  63.0424810  62.6579417  20.0558006
   9.6119750  47.8219938  75.9079409   8.8617861  47.2280169  75.8825779
   9.3255138  48.5908222  75.4149151   2.3749021  57.5734425  60.5794477
   1.5423685  57.6752329  61.0407066   2.5225079  56.6279459  60.5574846
 108.7839936  36.0307622  54.6260309 109.3579058  36.7477202  54.8958969
 109.3405272  35.4682112  54.0874815  26.6747689  58.6116362  71.3821888
  26.4454436  57.9658127  72.0504332  27.4846101  58.2788181  70.9953737
   1.8986134  48.7276840  78.4623861   2.4639456  48.3415365  77.7934170
   1.3428190  48.0045223  78.7528324  52.5077618  98.2129128   4.7991955
  51.6943694  98.5196526   5.1998627  52.4386025  98.4795315   3.8824761
  87.7762292  93.0887508  83.6944389  88.6295436  93.0049133  84.1199493
  87.9683278  93.4990692  82.8512478 102.0649753  62.1262932  70.2723742
 101.3140474  61.7385101  69.8229694 102.5309883  62.6074839  69.5886183
  28.6546928  75.4699833  39.7624123  28.9859302  75.3400929  38.8737976
  29.2547185  76.1065204  40.1510346 104.4856428  46.3062477  58.3621168
 104.0917771  45.4664469  58.5984182 104.7715060  46.6797447  59.1957951
  96.0116230  70.6385279  92.4145412  95.1329337  70.8959341  92.1354771
  96.3886724  71.4365625  92.7849579  54.1559447 103.4250529  12.9811012
  54.7908176 103.6156781  13.6716282  53.3797170 103.9300425  13.2233536
  85.1012014  20.4148316  72.8191376  85.7433842  19.9242818  73.3321619
  84.8413585  21.1383915  73.3893776  28.8601899  57.7410507  90.2799320
  28.4520268  57.2833967  89.5449543  29.7727799  57.8545809  90.0143623
  48.3748532  91.3121421  25.6747925  49.1238273  90.7311947  25.8080876
  47.9095639  90.9355314  24.9278652  15.0594699  70.0852251  85.6238747
  14.1549098  70.2649593  85.8801842  15.0128913  69.2574263  85.1455307
  59.7840168   8.8042004  27.4613964  60.1642944   8.0203325  27.8578484
  59.8414065   9.4707519  28.1459725 112.8543385  63.1479788  89.3267441
 113.1581405  63.7234449  88.6247635 112.4259782  63.7353325  89.9494457
   7.4708688  40.2528381  85.9039688   8.3191305  40.0880957  85.4922104
   7.5449252  39.8562598  86.7719936  72.4942781  12.0162327   1.9112885
  72.5841873  11.6150505   2.7756989  71.8067278  11.5075333   1.4814865
   9.2302531  52.8110075  82.0136738  10.1531470  52.5959587  82.1487713
   8.9865732  53.3179283  82.7881908  93.1774662  54.4612694  74.1527176
  92.4178217  54.4194221  74.7336006  93.6410998  53.6378145  74.3050385
   9.5655769  77.8998852  92.2442627   9.7593874  76.9865227  92.0334530
   9.8987198  78.0162191  93.1340408  75.0151301  82.9328997   7.8977883
  74.5213533  83.7518747   7.8565800  75.7374955  83.1186779   8.4977066
  90.0919009  84.1537411  15.3168308  90.1975919  84.7989638  14.6177303
  90.8782101  84.2514951  15.8538544 104.2270718  33.5801816  60.0615978
 104.1692059  34.2537475  59.3839598 104.5889126  32.8172874  59.6107149
 103.8664041  65.6878424  77.4680614 103.0680214  65.2383804  77.1909380
 103.9646934  65.4542160  78.3910942   2.9981905  80.7317257  68.1643772
   2.5660652  80.7042313  69.0180445   2.4328470  81.2870693  67.6275253
 106.5075265   3.4959343  67.7804422 106.1468200   3.2933643  68.6436272
 105.9009658   4.1383207  67.4121284  88.4460638  55.5060768  67.4172306
  87.7323888  55.4033852  68.0467939  88.2702039  56.3446522  66.9905043
  16.8335533  75.7250071  58.9623594  17.6976383  75.7493448  58.5512686
  16.6123688  74.7944736  59.0000391  19.5205140  78.0904531  74.9731112
  19.5062053  77.2937632  75.5035019  20.1315069  77.8943920  74.2628431
  82.1106718  60.6469870  61.9640732  82.7116679  59.9183369  62.1193266
  81.3595651  60.4622555  62.5279379  19.4435477  52.9731131  61.2485743
  19.1333461  52.1174431  60.9522057  18.9668918  53.6016417  60.7063675
  88.7847294  12.2715408  -0.3179539  89.3000998  11.7337734   0.2832329
  87.9232814  12.3336203   0.0947010  93.8596632  10.0964720  10.0766956
  93.9204420  10.4833776   9.2032921  94.0651597   9.1711170   9.9435723
 111.4258988  68.1754732  63.4921741 112.1959782  67.6279211  63.3392286
 111.7827840  69.0155792  63.7804317   9.1987610 101.5164661  90.7264423
   8.4529912 101.1164379  90.2791882   8.8953966 102.3936939  90.9602737
  17.6322806  92.3815727  82.1869755  18.4559393  92.5870800  82.6292229
  17.8983200  91.9873333  81.3562965  15.0697863 101.1460495  85.6218529
  14.7991836 102.0133781  85.9230804  15.3682411 101.2868881  84.7233486
  93.8764940  59.5430183  72.8527498  93.0997919  60.0997210  72.7975464
  93.5576223  58.6654234  72.6420784  88.0762817  34.9949533  22.7426636
  87.5293948  35.0752241  23.5241425  88.0145623  34.0708143  22.5010407
  82.9362156   4.8876221   2.4234402  82.2551645   4.8231298   3.0929482
  82.4577882   4.8881180   1.5943825  24.6296000  71.0881090  75.7254982
  25.4902911  71.4638424  75.5403852  24.0096593  71.7117023  75.3472996
 105.5215339  41.3302469  81.3418484 106.4203833  41.6285229  81.4808941
 105.3471301  40.7439661  82.0781231  24.3532872  14.9212873  53.9655018
  24.5048380  14.7040546  53.0456781  23.8169909  15.7137060  53.9392424
  88.9044143   0.8706695  15.8560002  88.4113015   0.2154858  16.3497746
  88.9354791   1.6329128  16.4341461  82.5750704  17.6296122   8.8618958
  81.8535884  17.6771767   9.4891369  82.3586936  18.2841999   8.1978714
  95.3646709   3.7441093  14.9505722  95.8517601   3.8885385  15.7618153
  95.8227565   3.0213577  14.5216000 109.2453138  43.2831383  78.2488489
 109.0483306  44.1046953  77.7988815 108.7000431  42.6317406  77.8077221
  60.3870107  92.9845340   8.1849301  60.6597639  93.8441069   7.8640377
  60.5507589  92.3919661   7.4512589   2.8314063  40.2737331  54.4405174
   3.4096271  39.8436093  53.8105297   2.5350821  39.5674777  55.0146484
  27.2127032   9.9379933  59.6437597  27.5190091   9.3884039  58.9223957
  27.9917097  10.0853169  60.1801157 100.8534323  45.8490992  77.5635481
 101.3849841  45.8444881  76.7675161 100.0870524  46.3758421  77.3367500
 113.0152315  42.8966856  84.8841476 113.1209343  42.5017166  84.0186691
 113.1357986  42.1700001  85.4953957  99.6036290  39.9976158  90.7109547
  99.8869596  40.9111357  90.7487965  99.7612976  39.6612096  91.5931129
 101.0750459  49.9110222  62.3702526 100.1378296  50.0285435  62.5253201
 101.4957772  50.3118038  63.1309032 109.2956753  72.1717978  82.8787994
 109.3204926  72.6736879  82.0641041 109.1549544  71.2673664  82.5987434
  21.8837166  82.4076462  92.3716164  21.2074423  81.9058514  91.9165516
  21.3971400  83.0094624  92.9349041  85.0648833  47.7683885  10.3523934
  85.4295112  47.4000580  11.1571324  84.1259814  47.5919588  10.4121697
  41.1481664 102.7538235   0.3371823  41.7636962 103.0188019   1.0206616
  40.5007208 102.2161992   0.7932579  56.3966525  98.6898739  31.6146385
  56.1984838  98.0758507  30.9075749  55.8755613  99.4664366  31.4105522
  16.4265704  41.1686325  72.2032690  16.5965080  42.0696926  72.4779463
  15.5973935  40.9421778  72.6244831  12.3213911  70.4754734  85.3996849
  12.2053671  71.4102650  85.5697632  11.4418328  70.1064539  85.4799080
  28.1291056  61.5776587  74.6127272  28.0748105  62.3199415  74.0108156
  28.8949585  61.0852766  74.3173218   9.6928233  18.6995864  38.3932257
  10.2144873  17.9031765  38.2940841   9.4554877  18.7165785  39.3203807
  77.4436316   6.6270000   5.0329697  76.7281060   7.2571833   4.9485981
  78.1894459   7.1494991   5.3279030  17.5022280  56.0454798  24.0367246
  17.9068375  56.8655920  23.7539864  17.3727405  55.5508423  23.2275271
  85.1476462   6.0671789  19.1681969  85.1878806   5.3407366  18.5461819
  84.2146076   6.1712915  19.3548214  53.1195522  87.1253474  40.9822857
  52.9013015  86.5225990  41.6931259  53.5781790  87.8470142  41.4125073
  26.8526591  70.0700815   5.1776898  25.9083641  70.1712890   5.0581276
  27.0877672  69.3328340   4.6142876 112.2735614  83.7958527  86.3013935
 111.8815030  84.2529869  87.0454025 111.5657973  83.7308407  85.6602383
  15.1818860  29.9421716  58.5879946  14.8407722  29.5722437  57.7737284
  16.1133993  30.0804114  58.4165144  10.8165729  83.0323124  75.1940012
  11.2141418  83.1188393  74.3275833  11.2739241  82.2930241  75.5946398
  15.9131026  58.5278749  72.5132418  16.1620486  58.9760256  71.7048979
  15.1039922  58.0667496  72.2920275   0.5532400  43.7837839  49.2766428
  -0.0493561  44.0894318  49.9546480  -0.0157403  43.4917021  48.5644770
   3.2223380  41.3393021  88.1462765   2.5338650  41.7497683  88.6694908
   3.4260800  41.9849777  87.4696541  72.8584982  98.8250382  10.3284943
  73.1713844  97.9239924  10.2481758  72.3565651  98.9765675   9.5276558
  22.2043157  54.2081547  76.5159607  22.2512531  53.6487865  77.2912884
  23.0469036  54.6619225  76.4966297  65.7938386 101.4416916  26.0162651
  65.7648874 102.1671183  26.6400730  66.4306475 101.7178614  25.3571427
   3.0544078  46.4795637  91.6177082   3.3107871  47.3381376  91.9543839
   2.4970523  46.6744041  90.8642960   2.4084480  93.6803627  82.7524376
   2.4302745  94.2051125  81.9521904   2.2048916  92.7944660  82.4524498
  16.1543751  65.9630346  82.1456242  16.9571269  66.4638138  82.0005608
  16.3278496  65.4571009  82.9394531  10.1432049  43.5263109  67.1790886
   9.8572850  42.6133394  67.1480274  10.4663491  43.6458445  68.0721283
  84.4819464  10.1019556  18.9552891  83.9005031  10.8573038  19.0425121
  83.9976557   9.4896013  18.4014713  38.9585447  85.5793953  73.4541082
  38.0534196  85.6464195  73.7582254  39.4861746  85.7066059  74.2425585
  14.7837973  39.4568658  87.1853542  14.6461093  39.4336128  88.1323147
  15.5078709  40.0709724  87.0636177  25.5835915  75.1496029  71.7772245
  24.8681760  75.7083082  71.4734840  26.0103536  74.8494434  70.9747171
  58.5525157   6.3066418   8.8533508  58.6884345   5.3701574   8.9974320
  57.6033248   6.4015085   8.7741863  87.9826902  56.6843557  77.9448318
  88.6333130  56.4656973  77.2776699  88.0827306  57.6270866  78.0770540
  60.4161263  99.5117791  37.5234615  59.6520806  98.9835246  37.7545750
  60.0576139 100.2464898  37.0255673 103.7014239  65.3927565  80.2216053
 104.4921236  65.1724482  80.7140446 103.1188498  64.6454477  80.3571415
  11.9216537  50.1325178  42.6078033  11.3890254  49.3427753  42.7018642
  12.7954209  49.8076391  42.3905134  21.4972091  31.9496059  83.6366367
  21.5388584  32.5393319  84.3894386  20.6874490  32.1916676  83.1872654
  20.8645797  70.8008146  56.3911963  21.0211873  69.8679352  56.5376425
  21.7255616  71.1565828  56.1712599  63.6611749  29.1242201   3.1988060
  64.3945123  28.9400656   2.6118290  63.0037774  28.4655554   2.9747116
  84.0640213  19.3237192  11.9718849  84.6493198  18.8383085  12.5532925
  84.6506460  19.7904474  11.3766777  13.3913520  16.9201691   3.7581360
  13.2212642  17.6662046   3.1830418  13.7258008  17.3112804   4.5652306
  25.4587030  53.8397264  71.8975687  24.6322060  53.6072683  72.3207617
  25.6824017  54.6957159  72.2628975  34.9743700  90.7051086  72.6662493
  35.3801394  91.5481472  72.8684330  35.6865835  90.0708103  72.7477741
 109.2571010 105.4354000  54.6812439 110.1746456 105.2306366  54.8612928
 108.9674927 105.9308910  55.4473019  17.0834911  63.4348822  91.7717743
  17.0026064  62.5343943  92.0861149  17.2558463  63.3467579  90.8343506
  21.1227989  79.2726755  91.7097282  20.7544184  79.5488596  92.5489235
  20.5059147  78.6187744  91.3809395   4.7600853  34.3767381  86.3685608
   4.4437006  35.2766800  86.2895775   5.2936685  34.3793225  87.1632385
  47.3758793  26.2189150  81.7099857  46.5339136  26.2009072  81.2550163
  47.1507931  26.1151314  82.6345348  18.1087482  67.4843788  29.2847610
  18.3780766  66.7412519  29.8246264  17.1883941  67.6221132  29.5088387
 102.4034596 106.1058886  32.1752655 101.7465974 106.6802914  32.5687325
 102.4782897 106.4115603  31.2712776  89.2179988 105.9916592  85.4369164
  89.7027872 106.4855957  84.7756767  89.8522423 105.3607082  85.7773113
  92.1141241 106.1110687  87.2249031  91.9023417 106.5558147  88.0456257
  92.9109357 106.5430260  86.9171047  18.1613469  80.1745510  74.0673780
  18.5173774  79.3077660  74.2627096  18.4204602  80.3412533  73.1611204
 112.0631625   9.0133173  35.3542149 111.9903375   8.7127335  34.4483578
 112.7259661   9.7032959  35.3250611   5.2642968   3.5183222  16.5184796
   5.0095037   2.8084690  15.9290516   4.6618894   4.2319233  16.3084423
   3.2443622   9.2157919   4.4187653   3.2758334   9.2979462   3.4656155
   3.2602504   8.2721455   4.5784771  13.0183077  63.6185122  51.1110735
  12.2862387  63.5061312  50.5047083  13.7951016  63.4202909  50.5880737
  21.2351752  91.8888195   8.9879715  20.7503081  92.4120338   9.6262467
  20.6064952  91.7258103   8.2848274  57.2026802  16.0759162  74.8884821
  57.1758855  16.3829898  75.7946968  57.9757572  15.5128574  74.8491478
  18.3257878  78.3316708  78.7765837  17.8977573  77.8848219  78.0462790
  18.4890819  79.2175150  78.4527826  83.0457421  31.3880140   4.2033684
  82.2465290  30.9359724   3.9329064  83.6345030  31.3029272   3.4534752
  81.4540959 106.3701327  16.5981972  81.6288949 106.0642846  15.7081711
  82.0232964 107.1321566  16.7057144  77.2024561  95.1044209   6.6641152
  76.2567306  95.1117451   6.8117058  77.5181032  95.8993180   7.0939266
  73.6547177  32.2233183   0.3154385  73.1394760  31.8425352   1.0266030
  73.1981655  33.0358679   0.0973522  69.9330898  14.1602594  22.2019303
  70.5394726  13.6093313  22.6969158  69.5121320  13.5600788  21.5864479
   2.0261410  19.4650251   8.3023750   1.0994151  19.2274029   8.3330834
   2.4734929  18.7420017   8.7420857  41.3291359  62.5500488  88.2664871
  41.4305973  62.2580910  87.3605633  40.6209993  63.1932020  88.2329750
   5.2947354  95.2972794  91.9717884   5.1322877  95.5726910  91.0695744
   6.1994523  94.9847031  91.9675827  85.0565027  35.8669066  88.0287838
  85.2239083  36.4433455  88.7743855  84.1458820  35.5927849  88.1376839
  41.3985974 104.8584635  13.2567513  40.8869580 104.0505154  13.2976925
  40.7989804 105.5028756  12.8806793 102.3620950  79.0063334  58.4292698
 103.1845926  79.0218592  57.9398966 102.5836872  78.5789871  59.2566204
   7.7602375  87.5192165  86.8392563   8.0685252  87.7164555  85.9547901
   8.1997615  88.1626606  87.3951626   9.6815431  97.6849937  67.8360558
   8.9280289  97.1227837  68.0159807   9.6994698  98.3026981  68.5670471
 113.2511123  49.7965097  89.9991035 113.5896628  50.5616522  90.4640388
 112.4222276  50.0923395  89.6227169 108.5508178  56.3179636  87.5497055
 109.4856174  56.1470175  87.4349880 108.4912212  56.7675304  88.3926582
   2.7005020  60.2537680  68.7916803   2.2048564  60.9787703  69.1723919
   2.6158288  59.5448589  69.4292641  48.4307718  95.9649277  56.9227600
  48.2159424  96.8114853  56.5310621  49.3438053  95.8129501  56.6788244
  52.1145105  50.9450722  85.9053135  51.7096806  51.4483547  85.1988792
  53.0490017  51.1391878  85.8326149  94.2852031  47.2814417  63.0987024
  94.5621787  46.4627409  63.5100985  94.3254636  47.9288197  63.8026285
   1.0750154  16.1174852   1.1427223   2.0102266  16.2755663   1.0137951
   0.7243231  16.9650585   1.4163410  97.5109603   3.1165964  28.2791054
  97.5383856   3.6959392  29.0405857  97.9299237   3.6192543  27.5805103
  62.4461937  68.2974863  73.1795883  62.7339363  67.9054213  74.0040398
  63.2132626  68.7722826  72.8595829  26.6367031  12.0996761  84.9186039
  25.7729960  11.8986320  84.5582962  27.1621431  11.3223552  84.7290707
 101.0552679  45.4461908  66.5854836 101.4008211  44.6673203  67.0215845
 101.7939316  46.0544682  66.5608644  91.0374703  27.5056059  12.9825413
  91.3493277  26.7891390  13.5353958  90.7384969  28.1724722  13.6007130
  96.5214540  34.0652067  23.0676663  95.8087923  34.6134836  22.7394306
  96.1135604  33.2148821  23.2313931  18.3821058  39.1845703  77.6835918
  17.4769831  38.8890243  77.7817631  18.3397675  40.1322985  77.8110695
  89.6407618  34.3394358   6.1084473  89.8980583  33.8637621   6.8982422
  90.1826073  33.9630205   5.4149449  61.3325526  49.3470556  26.8775379
  61.4007761  50.2281362  26.5097439  62.2142710  48.9838774  26.7944252
  72.6620746  78.2341368   8.3791363  73.1628872  78.9731724   8.7244618
  71.9289494  78.6377985   7.9145825  69.4776096  20.9920008   6.2535107
  69.0493675  20.2910931   6.7450058  69.6780588  21.6578705   6.9112789
 101.2917696  73.5545874  77.8656960 101.8003999  74.2507315  77.4498701
 100.4867135  73.5055590  77.3502207  88.9669444  21.3322002  25.6492722
  89.5339038  21.9670088  26.0872376  89.5362462  20.9034283  25.0103104
 104.8346786  69.1136456  71.4733744 104.1644667  69.2187881  70.7981014
 105.4737274  68.5157919  71.0855341  16.6980362  25.7894969  90.1872253
  15.7981169  25.4700589  90.1213646  17.1605527  25.3515005  89.4727612
   0.5691999  75.7482004  85.9502697   0.9764148  74.9303722  86.2358665
  -0.0203163  75.9850216  86.6662407  10.2578986  70.1438570  59.2475128
   9.4619775  70.2278328  59.7725725  10.0129259  70.4806614  58.3856630
 103.7303530  62.3790932  75.4699421 103.7040268  62.8370428  74.6298075
 103.9950733  61.4864159  75.2479458 105.6979229  32.1510775   0.7759010
 106.5295173  32.0625383   0.3102410 105.5195810  33.0915052   0.7709324
  23.9950919  92.8564644  79.5056963  23.0518603  92.7848721  79.3593216
  24.2688751  91.9700146  79.7412634  87.4208571  34.9374468  25.5206501
  87.1489562  35.6355555  26.1164295  88.0825581  34.4489176  26.0102665
  51.2549591  87.6327991  66.7301273  51.3593340  86.9956493  67.4367952
  50.3153467  87.8141117  66.7079544  12.5963724  80.0224590  81.7971706
  13.2693672  79.5894527  82.3223591  13.0025005  80.1418686  80.9386635
  32.5674343  88.6066055  83.5785007  32.4006176  89.5481491  83.5349751
  31.6982746  88.2073784  83.5408783  28.3497787  94.8404598  64.0327597
  28.6249113  95.6900215  64.3774033  28.1137562  95.0165272  63.1219769
  99.6673308  14.8300004  91.7162418  98.9394306  15.3477943  92.0601654
  99.9132250  15.2724946  90.9038639  27.8193641  89.5452976  61.2322998
  27.8486085  90.2737045  61.8526268  27.2150636  88.9174843  61.6284037
  18.4789503  33.6137176  89.7147942  17.7168083  33.1017733  89.4440842
  18.7870193  33.1816530  90.5114460  15.5442870  69.4542885  82.4049950
  16.4493406  69.7635651  82.3668385  15.0503707  70.2003384  82.7451229
   0.2479741  59.3154812  79.9681282   0.6442297  59.4519806  80.8286953
   0.7241532  58.5709143  79.6005630 103.1321500  93.6879730  62.2624493
 102.8899310  92.9297543  62.7941084 102.3033272  94.0010834  61.9001675
  88.8143398  41.1998255  13.9817726  88.7023951  41.2820513  14.9288380
  88.2245816  40.4885656  13.7317383  12.7556360  72.7042580  78.2373857
  12.2904861  73.2257032  78.8915730  12.0702481  72.3986959  77.6431561
  62.2547425  27.7397901  35.5266106  62.4889209  26.9466192  36.0085594
  62.7191879  27.6597197  34.6934712  98.4164213  85.1052475  86.1998749
  97.9846702  84.3865681  85.7380009  99.0280531  84.6734905  86.7963123
  69.5426120  61.0373861   1.0144245  69.9373032  60.3231127   1.5146744
  70.2833451  61.4707071   0.5904209 105.7970695  72.8428936  74.8430586
 105.6816082  73.4718227  75.5553389 105.6637834  71.9886589  75.2538586
   8.1718379  67.6540375  80.1322079   8.1654447  68.5806942  79.8924208
   8.7785608  67.2502470  79.5116663  28.0685306  92.5163746  65.9358072
  28.2766628  93.1674767  65.2657461  27.6557112  93.0189610  66.6380978
  97.2308995  43.0183966  20.8642208  97.5089456  42.4678022  20.1322567
  96.3805248  43.3647997  20.5938351   1.5636267  84.8310757  85.2677250
   0.8382735  85.0209332  85.8627415   1.1536908  84.3908119  84.5231724
  99.0939166  36.4533216  18.2864010  98.2405903  36.7016107  18.6419499
  99.6219708  36.2422163  19.0563500   5.8728337  45.3955746  87.3908520
   6.7022491  45.3802156  86.9132900   5.5640703  46.2975931  87.3056602
  94.1835450  57.2825146  87.3268700  94.2415903  57.5327921  86.4048004
  94.6532272  57.9742622  87.7928352  14.1952240  55.2348089  70.3083372
  13.9437759  56.0115671  70.8079863  13.4824359  55.1122427  69.6813250
  94.2471637  33.9399034  14.0499508  95.1989545  34.0191252  14.1135990
  93.9106347  34.6277887  14.6242249  25.7884908  59.5496035  86.6349030
  26.2650418  59.9280119  85.8960342  25.6053710  58.6493731  86.3660431
  12.4949801 101.4792919  83.1341839  11.9506788 102.1967697  82.8098583
  11.8787205 100.8870316  83.5651016  82.3515292  13.8058597   1.2136662
  81.6862174  14.4918186   1.2689602  82.0417883  13.2273943   0.5167687
   9.9320692  77.0527840  60.5750942   9.9895781  77.5676298  61.3799906
   9.3242270  76.3443232  60.7868528  27.7949095  81.5694714  67.0467901
  28.3546424  81.7148113  67.8095531  26.9044995  81.6905117  67.3765659
  15.8236837  69.5229006  88.1430435  15.5411482  69.7831345  87.2662926
  16.6429675  69.0490770  87.9998779  25.6775928  54.8213911  80.4031181
  26.5206981  54.3791199  80.3041363  25.5618834  54.9074268  81.3493919
 113.3101351  49.7109032  76.3588428 113.4696252  49.9678183  77.2670221
 112.6116019  49.0587616  76.4135599  77.4060674  19.0908129   4.7389900
  76.6092768  19.4515116   5.1278984  77.5460982  18.2649977   5.2022850
  11.9011891  90.7809544  91.1561298  12.5254953  90.4158306  90.5291080
  11.4422655  91.4639473  90.6671143  21.2041810  21.8415195   8.3508694
  21.1953071  22.7922804   8.4613430  20.3901914  21.6467602   7.8864109
  61.6723444  48.1958277   6.2689030  62.2240736  48.1640894   7.0504486
  62.2883298  48.3113081   5.5453980   6.1688924  77.7501249  63.6623716
   5.4458845  78.1167698  64.1713524   6.6686893  77.2332335  64.2942381
 105.2079760  54.7024727  78.2076406 104.4589190  55.0280523  78.7067842
 105.7996957  54.3448257  78.8696003  35.6617905  97.4497063   3.0696594
  36.1884078  97.7699311   3.8020336  35.8745281  98.0389960   2.3459828
  22.5418523  45.1394350  38.5949146  23.3005002  45.1230318  39.1783631
  22.7248004  44.4609243  37.9450142  32.6623464  84.9079227  88.2660866
  33.4103131  84.9155712  88.8633537  32.2934651  84.0291882  88.3554459
  28.4934449 104.8272228  86.7134666  28.6340976 104.7292042  87.6551914
  29.3630981 105.0133610  86.3595009  84.6359511  12.5225384   5.1342213
  85.4398443  12.5322897   4.6147072  84.6543302  11.6800148   5.5881416
  16.8257248  59.9893332  70.5438280  16.9926500  59.7398233  69.6349192
  17.2439373  60.8451843  70.6379271  88.7550999  13.9635498   6.0235989
  88.2778897  14.5232660   6.6361439  88.4565486  14.2456228   5.1589977
  96.8500434  58.2389259  64.5213842  97.3719107  57.9381371  65.2652979
  97.3308097  58.9934015  64.1809988  63.0105175  33.7617094   1.7754948
  63.5496594  34.3502695   2.3038494  63.4391679  32.9094202   1.8535816
 112.9461028  78.2201433  71.7180395 112.8881980  79.1221809  71.4030647
 113.8807411  78.0784988  71.8684387  86.2130974  96.8514919  67.4843645
  86.5219878  97.4852467  68.1317997  85.6380676  97.3569489  66.9098282
  61.8719830  40.7657797   7.4538910  60.9691800  40.7801611   7.1361267
  61.9482984  41.5522367   7.9941570  38.9603996  90.8248234  65.9025478
  38.1161165  91.2757397  65.8927441  38.9419770  90.2650166  65.1263380
  15.3180599  76.0493898  85.1250839  15.3800774  76.2577200  86.0572815
  14.3798685  76.0716629  84.9365902 103.3689909  87.3175526  69.2910719
 103.1748937  86.9555378  70.1556540 102.6302730  87.8962803  69.1023874
  73.4590045  -0.0748604   4.0055477  73.8861482   0.7271368   4.3065178
  73.2337530   0.1020033   3.0921948  41.4877559  57.2116644  16.5455448
  41.7496802  57.8378946  17.2204220  42.3038866  56.7843611  16.2855923
   7.4757433  65.4349566  49.6344900   7.5105619  64.6878910  50.2319098
   7.0427924  65.0953293  48.8512659   7.5398099  95.7371140  58.7532091
   7.2401434  94.8289490  58.7939119   8.0766732  95.8475876  59.5379400
   8.7075990  39.5136547  88.3567142   9.1734535  40.1612186  88.8857365
   8.7236816  38.7159896  88.8855839  20.4262137  67.4586725  84.1343689
  19.5699573  67.3700857  83.7157917  20.2283287  67.5604439  85.0653458
  25.4820228  88.7404251  76.0926199  26.2863874  88.6930752  76.6093302
  25.7723045  88.6313438  75.1870441  24.5769215  84.4561863  83.9079380
  23.7800646  84.8976231  83.6140156  24.2765164  83.8383389  84.5744610
  35.8606863  68.6147642  64.4158030  35.8276629  67.6976490  64.1437006
  36.5124106  68.6333513  65.1166201  19.5584166  66.0196733  74.0801859
  19.6461940  65.8658743  73.1395102  20.4383492  65.8777952  74.4292116
  20.9176159  54.0684748  70.0655556  20.5396199  53.1985617  69.9366951
  21.5840816  54.1435909  69.3826151  89.3721904  40.7927019  24.9699413
  89.6992518  39.9387533  24.6870434  89.6346893  40.8575136  25.8881676
   3.2814720  59.3958139  81.5826988   3.8461092  59.4637346  82.3526382
   2.9735160  58.4895420  81.5907288   8.7364370  89.0066433  88.9208508
   7.9036081  89.1437054  89.3723488   9.1757566  89.8558903  88.9656353
  76.9299460  19.3060779  69.1143894  77.8451110  19.3286228  69.3940306
  76.8684984  18.5294341  68.5582542  82.0370491  17.2147877  24.7000229
  81.4871289  17.6600105  25.3446972  81.8047948  16.2900812  24.7849095
  10.8168542  56.3671589  68.4306622  10.3127837  55.7317972  67.9222727
  11.6704941  56.3964605  67.9986095  24.8127651  32.1401048  85.7597446
  25.5481434  31.5313554  85.8295631  24.6938896  32.2651291  84.8182201
  54.6266844   3.4874470   3.6835205  53.7075617   3.4284717   3.4228146
  54.6137048   3.9977962   4.4932186  30.0882125  68.9239359  53.9749479
  30.5353308  68.1335306  53.6723232  30.7782650  69.5854712  54.0242243
  31.1091370  11.2370586  76.1569881  31.6970552  11.4288520  75.4263735
  31.6793890  10.8728790  76.8340540  87.0449092  19.6091682   3.2413304
  87.3945584  20.4502851   3.5354340  86.1969115  19.8248131   2.8532231
 103.9884935  66.5606499  51.1096811 104.3862788  65.8659124  51.6344070
 104.7295414  66.9992495  50.6916952  62.2630562  28.1083948  21.8602764
  61.6407229  27.5558264  21.3874066  62.7826955  28.5259039  21.1733353
  11.1545089  14.1762478  23.7317478  10.9553436  14.6456892  22.9216969
  11.4164642  13.3018333  23.4436237  58.8077117  94.9739535  17.6189053
  58.3999778  94.1136963  17.7186215  59.3671728  94.8858435  16.8472397
  98.1303193  34.6696646   9.3474400  98.4751178  33.8783342   8.9337551
  97.4382688  34.3540556   9.9285519   5.5365527  86.7901325  65.1606369
   6.3645339  87.0701122  65.5508804   5.6204331  87.0148182  64.2339706
  10.3919554  61.9799328  74.8362112  11.2566304  62.2990894  74.5779324
   9.7809654  62.4760628  74.2914343   5.6480318  89.7832108  82.4064159
   5.6351542  89.9565411  81.4651203   4.8698208  89.2480564  82.5620747
  27.5336528  47.2865391  86.5010071  26.8655920  46.6384888  86.2774849
  27.4836206  47.9343319  85.7980919  44.9409563   7.2558975  92.1855450
  45.1313258   6.9481086  91.2994003  45.0969524   8.1996250  92.1499920
  89.6060680  56.9233990  55.3916264  90.3142808  56.3445950  55.1093960
  89.8103689  57.7666187  54.9873066  43.6911345  96.4644654   2.5914395
  44.3389327  95.7749207   2.4461090  43.7644560  97.0281441   1.8212998
  80.5311619  31.4435560  23.2904064  80.0867809  30.7049734  22.8741562
  80.1920395  32.2144110  22.8354370  14.3920803  65.6048775  75.7895613
  14.4503760  65.0547838  76.5707350  15.0424135  65.2391005  75.1899719
 105.4895471  95.1350689  91.1723995 106.4223425  95.0451756  91.3674450
 105.3560983  96.0773182  91.0694695  93.0603840  22.5835688   7.4357140
  93.5068657  21.9849140   6.8369686  93.5545625  22.5178368   8.2528412
  12.5435030  93.6787987  82.5776863  13.3438182  93.5538864  82.0676613
  12.8414476  93.7113285  83.4867477  46.8260140 103.7345250  45.2538979
  47.4686093 103.1306870  45.6262886  46.2265546 103.9217646  45.9762680
  18.1004512  93.7184715  69.6839333  17.4403882  94.3397903  69.3764973
  18.8552368  94.2625523  69.9086809  55.1190830  85.6445129   5.3040421
  54.9158920  84.7788007   5.6582844  55.5252088  85.4668672   4.4556725
  25.4210138  53.0924892  85.8011532  25.3297615  53.6448526  86.5775585
  24.9728894  52.2788048  86.0320950  88.5114525  10.0530994  67.0104074
  88.4598397  10.7373619  67.6777554  88.9580940   9.3270612  67.4458504
  99.4581948  84.8045063  57.8958082  99.0318643  85.6611443  57.9211426
  98.8146506  84.2054081  58.2741785 109.0960314  14.9222261   0.1872837
 109.8366739  15.4500420  -0.1111973 109.3046548  14.7095329   1.0969364
  64.4837727  18.5737497  12.3599732  64.3891765  18.9101107  13.2511246
  63.6569442  18.1245357  12.1844971  68.7655593   1.9107818  89.9553394
  69.5012117   2.4303436  89.6311474  68.1137181   2.5589656  90.2221584
  47.7237272  94.8714733  67.4280739  47.7991295  94.5479870  68.3257961
  47.1078348  95.6017971  67.4875879  23.5980606  47.3465300  75.0304461
  23.1316924  48.1572008  75.2342701  22.9144621  46.7442942  74.7367907
 100.5727984  12.6545126  39.6106350 100.5063822  13.2073767  40.3891956
 100.9911634  11.8518049  39.9218571 104.7494243  41.4464092  86.4047527
 103.9290337  41.5604162  86.8845463 104.6243559  41.9418287  85.5953407
  42.1924628   1.2173366  86.4616680  41.8820969   0.3832149  86.1093235
  42.8858382   0.9749412  87.0754337  25.8671285  76.3772209   1.1051476
  25.9422243  76.2430222   0.1603806  25.0320495  75.9720166   1.3389885
  28.5843391 100.3125937  33.2459080  28.1206823 100.7096417  33.9832031
  29.2829675 100.9336360  33.0398571  75.4888872   7.1701319  10.6341660
  75.8740983   7.5099737   9.8264801  74.6990159   6.7112524  10.3482163
 110.4861771  46.5573883  89.5817375 110.2027969  46.0733366  90.3573799
 110.0288783  47.3960924  89.6424961  37.8416514  63.1856060  90.7694054
  38.5537457  62.6024771  90.5064964  37.4926662  62.7920389  91.5691185
   5.2739269  65.3516102  77.6157475   5.6340379  64.8290062  78.3322954
   4.5051932  64.8612499  77.3244953  13.1844735  57.3293495  71.6391516
  12.6403642  58.1018400  71.4860725  12.5810647  56.6786480  71.9979239
   4.1786757  37.8613091  45.0054884   5.0149196  38.0197549  45.4434633
   4.0763849  36.9097281  45.0215912  18.1636262  64.4835472  76.9993687
  19.1006958  64.4498444  76.8070269  17.9578948  65.4180145  77.0252705
  66.6069842  85.1510246   1.1399758  66.7997695  84.6455271   1.9296181
  65.9635712  84.6221883   0.6681835  87.0070280  17.4454147  18.4649670
  87.3544254  16.7388327  19.0092861  86.6034950  18.0507166  19.0870678
  94.7585155   1.7535860   2.9976666  95.1450600   2.5559027   2.6468002
  95.4416920   1.3830358   3.5564053  10.4563081  76.8602371  74.3039846
  11.1883581  76.4542389  73.8397646  10.3755069  76.3545609  75.1126862
 111.1522749  74.5446062  76.5984631 111.2163010  73.8256550  75.9697866
 111.8094058  74.3402338  77.2637796  93.8566233  14.5342762  10.0288784
  93.4119405  15.3724081  10.1554787  94.3617489  14.4074280  10.8319962
  87.6311709   1.6369183  22.4907982  88.2116367   2.2174866  22.9829704
  88.1200613   0.8174831  22.4149906  88.7153007  19.2673189  27.5799286
  88.4134473  19.6077759  28.4220707  88.9088263  20.0482494  27.0613491
  32.9676437 103.3120251  68.9914513  32.6785946 103.0473995  68.1181526
  32.3548961 104.0012169  69.2479467 102.0961641  66.0181379  49.2655325
 102.7404164  66.3403034  49.8959112 101.2841223  65.9482622  49.7674656
  10.4304016  82.6928616  43.6752748   9.6029752  83.1735992  43.6530113
  10.6573081  82.6495266  44.6041775   2.7540281  53.4773588  63.2364130
   1.9478010  53.8316488  63.6115217   2.7481884  52.5531721  63.4855747
  14.6610999  88.9675617  71.7527485  14.1770160  89.5076466  72.3774052
  13.9858580  88.4651089  71.2968683  94.0808106   8.2469844  48.2109737
  94.4868852   9.0290260  47.8371572  93.2244588   8.5450649  48.5176277
  27.7395487  88.7742996  65.0765562  27.2292066  88.3836937  64.3671799
  27.1906042  89.4878292  65.4017735  61.5168812  25.7689125  11.7501938
  61.4178850  25.9242279  12.6895058  61.8841852  26.5847237  11.4099419
  17.2842479  91.2774563  68.8116312  17.5299418  92.0976639  69.2395639
  18.0215502  90.6901932  68.9781666  13.2117200  84.6199226  46.2059546
  13.4976721  84.6459770  45.2928400  14.0003335  84.8212242  46.7097378
  14.6115497  58.4868128  26.6539204  14.3629888  59.3559629  26.3392269
  14.3435434  57.8925974  25.9529793 108.3768679  24.0530807  14.4681942
 108.0785371  23.8169653  15.3465378 108.6106064  23.2183630  14.0621769
 108.7020923  10.6590301   8.9999211 109.3313290  10.2950127   8.3771908
 109.1838171  10.7091457   9.8255455 105.6480257  38.7682414  92.1662807
 106.2241535  38.4975481  92.8811455 105.4553060  37.9581881  91.6941547
  74.4785162  54.1204721  33.4192860  75.2965733  54.3539507  33.8580429
  74.5899524  54.4344122  32.5219261  75.7168594  21.8624813   1.8198979
  75.9300361  20.9323437   1.7448628  76.2875518  22.2912056   1.1821377
  30.2858567  87.9140759  76.0359144  30.9258294  88.6255646  76.0148764
  30.4004097  87.5143051  76.8980598  44.8865557  61.5069818  92.0113182
  45.4391050  60.9089136  92.5145435  44.3549919  61.9536400  92.6702309
 113.2600404  41.4323122  14.6977436 112.7118875  42.2019083  14.5445358
 113.5859110  41.1937506  13.8299191  70.4794384  25.5244731  72.4517298
  70.6002069  26.4733028  72.4146318  69.6313549  25.3744602  72.0340204
  64.8856784   6.6007709  51.7480040  64.4514466   5.7603359  51.8941307
  64.3236924   7.0547389  51.1200619  36.4195466  98.1801033  69.8091745
  36.5154767  98.6835098  69.0007114  36.6316152  97.2810936  69.5581245
  45.7339103   7.4371147  44.5878649  45.7028414   6.6271305  44.0787601
  46.3546891   7.9926586  44.1164398  18.0751264  69.5293760  79.2550087
  18.4286785  70.0271988  78.5178471  18.7809753  69.5249081  79.9015284
  34.3772793 104.5857143  77.3748112  35.1930737 104.2167664  77.7133274
  34.6388793 105.0631714  76.5875196 103.3894460  99.7072124  82.4646950
 102.6848219  99.3809891  83.0244446 104.1784142  99.6251011  83.0004406
  32.1185327  93.7266254  81.0229492  32.1791577  94.5797348  81.4527893
  32.5518227  93.1230354  81.6264153   3.2692945  77.1726418  70.6042433
   2.5376436  76.5856457  70.4135704   3.8542160  76.6545486  71.1571264
  84.5298286  51.6880114  20.8946240  84.5702477  52.5869162  20.5681622
  83.7017901  51.3473112  20.5562317  89.9464942   8.0166721  55.0183058
  89.0676118   7.9406070  54.6467972  89.8323871   8.5678481  55.7925224
  48.9025259  67.9224491  55.2136660  48.7729168  67.0309925  54.8900270
  48.6356354  68.4829426  54.4850731  80.8114483  53.2820780   5.0259030
  80.3514524  53.9684851   4.5427048  81.6978677  53.6240465   5.1422989
  40.7605410  90.3078842  83.0537796  41.1465263  89.4687843  83.3050823
  40.2528381  90.1117420  82.2663784  72.1547698  28.8693792   0.5432045
  73.0807138  28.9798052   0.7592213  72.1533166  28.6052210  -0.3768242
  80.4248403  57.2854025  19.5772850  80.1837547  57.5947554  20.4504501
  81.2185677  57.7745516  19.3605721  37.9215837  66.9221830  59.1232634
  37.2790790  66.7925596  58.4256840  37.4635983  67.4527836  59.7751427
  37.4100304 100.4927444  80.1059723  37.5137186 101.0293579  80.8918095
  36.6552782  99.9350834  80.2946281  41.2465715 104.5293903  72.0342922
  41.4239836 103.7473297  72.5569201  40.3050852 104.4957447  71.8648672
  23.6705756  90.8250904  75.4375839  24.1779160  91.6175175  75.6133509
  24.2738366  90.1070499  75.6292057  20.5905437  71.1853218  82.7787876
  19.6782899  71.1947250  82.4890709  20.5545855  70.8437872  83.6722565
 110.4477026  23.6043531  12.5038159 109.9427225  22.8195030  12.7165138
 111.0113932  23.7401754  13.2654202  94.0438128  18.2199668  90.2091980
  94.3606139  19.0535545  89.8613453  93.7515593  17.7341747  89.4379425
  92.2434165  57.3671133  25.4544842  91.8379082  56.9051725  26.1882412
  93.1654157  57.4439413  25.6999409  41.4818001  58.4805012  62.5826931
  42.0073271  59.1910172  62.2149754  41.8866205  57.6824951  62.2427797
  78.7052871  50.4915411   5.3026592  79.4136445  50.5604727   5.9427368
  78.8454180  51.2299330   4.7098839 110.4679851  82.2907257  89.9425983
 111.3495891  82.5211811  89.6495152 109.8869608  82.7999687  89.3775177
   1.7693684  81.3908386  44.3269300   0.8827872  81.5099716  44.6675348
   1.6479279  80.9200668  43.5023928  54.1947974  14.8785018  65.5932140
  53.4730149  15.4900836  65.7389450  53.8456536  14.0280532  65.8597898
  60.7988144   0.1614665  91.8998909  61.1708904   0.8287239  91.3232136
  60.4758406  -0.5157376  91.3054752  20.1570249  68.7788677  90.6965637
  20.5846906  69.5675516  90.3629303  20.0803089  68.9284086  91.6388988
  37.9802132  67.8122377  52.1102619  37.2999215  68.0111647  52.7535772
  38.8023877  67.9604912  52.5774717  22.9424953 104.8806477  85.7823563
  22.5569630 105.6622219  86.1782551  23.8857985 104.9932861  85.8994961
  39.1109157  79.8283243  65.9138393  40.0584316  79.7781086  66.0400391
  38.9947414  79.8142338  64.9638224   5.4491237  19.1702301   6.0188210
   6.3217166  19.2765648   5.6400025   5.5676559  18.5251266   6.7159760
   3.1842098  71.4794493  85.7706738   3.7777016  70.9210873  86.2728977
   3.7150940  71.7975235  85.0404453  18.5859683  41.3535482  22.4653828
  17.9579547  41.3081438  23.1863320  18.0522064  41.5463907  21.6945755
  10.2361143  78.2589245  50.5639362  10.0770509  78.3455229  49.6240234
  10.0507712  77.3393774  50.7544947  66.6729736  92.6404667  91.3474655
  67.4767303  92.1318626  91.2400913  66.9281626  93.3773232  91.9025803
   3.5489562  39.5957739  11.5052712   3.1451848  38.7644751  11.7545426
   4.0420535  39.8645002  12.2804367  89.1234674  45.0032980  15.0505554
  89.5931126  44.2203314  15.3380024  89.1613592  45.5947859  15.8021843
 112.9533292  25.8075888  22.7939140 113.1372048  24.9520285  22.4060452
 112.4128701  25.6123526  23.5594284  13.9665639  66.7373228  80.7109928
  14.4064438  67.4710608  80.2816200  14.5892775  66.4396524  81.3742065
  80.5891748  44.6092398   0.6080258  80.6735726  43.7723905   0.1510918
  81.4417572  45.0299150   0.4967987  51.8007326  95.9984303  67.2789335
  51.1684895  95.2890491  67.1636581  52.5769186  95.5709934  67.6409626
  40.7044748  38.6888201   7.0620930  40.2763561  38.3541281   7.8500855
  41.4330438  38.0866129   6.9112026   2.9105777 102.8821182  80.1186848
   3.2382855 103.3780670  79.3684387   2.7864707 101.9942856  79.7831535
   8.4577471  92.9810143  84.5391178   8.9757860  92.2467899  84.8689461
   8.8120127  93.7465000  84.9916267 108.2134344  33.3002550   4.7566330
 107.3202588  32.9583818   4.7167217 108.7695338  32.5218756   4.7233689
  40.5111170  87.7387714  36.6289258  39.5550656  87.7856064  36.6315460
  40.7688189  88.1504345  35.8040857   2.7455667  19.0490229   5.5473721
   2.2701934  19.1988785   6.3645565   3.6619046  19.2137653   5.7696640
  15.7478642  60.7764387  65.9665489  15.0259829  61.2462139  66.3841963
  15.5897474  60.8797073  65.0281620  35.8597183  74.9008656  23.3979392
  35.1082134  74.7453165  22.8258562  35.8781385  75.8505487  23.5162687
  28.2490158  84.1483402  72.0930243  27.5898623  83.5286045  71.7804813
  27.9374504  85.0017166  71.7915154  57.8219796  10.6159400  88.1537914
  57.7592314   9.6758556  88.3227539  57.1413780  11.0040664  88.7036705
   8.1473678  67.3352385  64.8181200   7.8156596  67.3293257  63.9202499
   7.7932131  66.5367508  65.2095556  84.2285109  35.5572605  60.7394934
  85.0838662  35.9017848  60.9962177  83.9492036  36.1221504  60.0189924
   7.3683655 103.7771130  91.2625217   7.2010863 104.5243073  91.8369389
   6.8741614 103.0576324  91.6553783  66.9851924  30.9714794  81.0869312
  66.6426826  31.5365886  81.7794323  67.5479222  31.5447330  80.5663967
  11.9249916  59.7930527  23.5328960  12.4585950  59.0647936  23.2148671
  12.4034512  60.1270771  24.2916679  11.9718409 100.7462406  86.1016750
  12.7366960 101.1456299  85.6872940  11.9466603  99.8561287  85.7505417
  10.3196719  21.5344603  11.4366638   9.6575311  21.8800384  12.0353043
  10.1397422  21.9697744  10.6033814  32.9684997 106.2722874  91.5239620
  33.3698893 106.5530586  90.7015896  32.8876662 107.0759106  92.0376587
  56.8945312  94.8183823  87.6274300  56.7683077  93.9250660  87.9472542
  57.7435064  94.7969723  87.1858311  39.3263386   9.6431350  90.2625370
  38.5581151  10.1918411  90.1044559  39.6976281   9.9800491  91.0779285
  27.0234442  79.3497276  33.0059958  27.3580647  80.0066471  32.3954844
  27.5308824  79.4858599  33.8061237  26.8266869  97.4580097  60.7329988
  27.2488785  98.3169174  60.7492828  25.8894849  97.6520634  60.7177305
 101.8081473  80.8918762  67.6942396 102.7576028  81.0020542  67.6429987
 101.4891826  81.7231178  68.0457067   3.2038233  98.0067253  64.7452450
   2.6442418  97.2320271  64.7994900   3.3660206  98.1199265  63.8087034
  99.8758723  53.6412794   1.9253838  99.2722513  53.1466562   2.4796593
  99.3424370  53.9229280   1.1821758   0.5151490  17.3151857  13.3612072
   0.9859327  18.0918772  13.6634361   0.2204350  16.8860704  14.1644680
  25.9810591  87.6935196  79.7345257  26.6767931  87.3567963  79.1698980
  25.4944968  86.9149590  80.0053215  59.1524793  47.9003508  17.1163666
  60.0426735  47.5596411  17.2041619  59.2683210  48.8405401  16.9790661
 109.8289301  41.4115793  17.3078930 109.6950723  40.8756430  16.5261757
 110.7689048  41.3544352  17.4793923  54.4549681   9.4272518  89.0474129
  53.6651612   9.6187877  89.5531273  54.5467771  10.1733684  88.4548664
   3.4542206  91.4224434  76.6664696   3.1204715  91.6879654  75.8095312
   4.3467051  91.7673874  76.6932917  96.7684032  66.0462458   3.8678658
  97.1263482  66.0868437   4.7546875  95.8382537  66.2448198   3.9756882
  25.2792645 105.9072876  77.2378874  25.1839352 105.0951385  76.7403364
  26.1059976 106.2801075  76.9317055  87.9129781   5.5660374  12.0600331
  87.4675657   5.4553253  11.2200462  88.3576836   4.7312815  12.2071850
  83.6958809  41.4426786  12.0973980  84.6246363  41.2571985  12.2361099
  83.6414166  41.7226870  11.1836922  85.1537623  17.8324015  40.9139454
  85.9240951  18.1044132  41.4127648  85.3488888  16.9356138  40.6420338
  25.3185323  36.8170435  10.6205475  25.5384639  36.1697370  11.2905132
  24.6984819  36.3668234  10.0469029   9.1900069  84.7763824  80.9707069
   9.1749758  85.7312202  80.9050846   8.3694285  84.5535755  81.4103031
  26.8136263 102.1342659  66.2434673  26.8283129 101.7202377  65.3805685
  27.0521021 101.4329624  66.8497086  60.4659320  19.1776084  86.4625931
  59.7850467  19.7492504  86.1078358  60.4822684  19.3769264  87.3986626
  12.9670385  51.0938532   6.2439739  12.2439197  51.3803179   6.8018830
  12.6018670  50.3741533   5.7292759  52.2873855  17.4384689  85.1438236
  52.2595156  16.5644073  85.5330086  51.9967306  17.3081207  84.2411804
  62.9230309  72.0466423  66.9466639  63.1436396  72.6409531  66.2294722
  63.7529039  71.6273737  67.1741676   3.4387925  67.4625349  81.2812138
   3.1697184  66.8731213  80.5766487   2.9905552  68.2861233  81.0888100
  65.8329583   3.0087661  56.9810915  65.3585149   2.7981090  56.1768818
  65.4459930   2.4371147  57.6442003  32.6975965  51.9266319  65.0954771
  32.2158241  52.3280573  65.8186579  32.6131415  50.9849501  65.2449083
  53.3947325  82.1788692  54.5274734  52.4520254  82.0142460  54.5066166
  53.7852573  81.3169098  54.6715260  31.3918114  76.6063261  91.4941311
  31.3445306  76.3159657  90.5832672  32.1824455  77.1444702  91.5332413
  11.0965490  97.9522705  57.7188778  11.1300576  97.6505089  58.6266518
  11.9343233  98.3947182  57.5824785  45.3961611  86.1477947  68.8684988
  45.7780600  86.5663910  69.6399689  45.2719879  85.2348900  69.1281414
  60.0066137  65.8562946  80.5870628  59.3024111  65.2144623  80.4955196
  59.5579004  66.6765547  80.7921600  91.6218414  25.1035005  11.0204518
  92.4845006  25.4778749  11.1990368  91.0052623  25.7357389  11.3896858
  38.8859010  82.6766014  53.2109308  38.9952469  83.5628128  53.5557413
  39.7560310  82.4336147  52.8946018  28.5667566  47.2158605  47.4783814
  29.0106109  47.3392755  48.3174240  27.6524642  47.0559580  47.7123272
  81.6636325   6.4416694  91.6902828  81.4745856   6.2999153  90.7627010
  82.3759509   5.8327484  91.8853283  96.2909652  16.5000057  91.0398483
  95.7201863  17.2610187  91.1462212  95.7017709  15.7481765  91.1017799
  24.8690057  79.1462374  52.6690435  24.7248125  78.9109850  51.7524719
  25.6700659  78.6821461  52.9122639  93.9825107  31.8295748  18.2402527
  94.9185456  32.0204527  18.3005535  93.8982345  31.2901098  17.4540531
   3.9724016  82.0470905  72.4623060   4.6850574  82.1442127  71.8307066
   3.3489642  82.7344322  72.2275352  97.2760536  49.2885668  18.7493241
  97.0240928  48.4625322  19.1621506  97.0742394  49.9556047  19.4054997
  92.1917392  42.0942099  21.4738953  91.3410367  42.5273020  21.4034187
  92.5631787  42.1511824  20.5935490 101.8572022  60.0136930  18.9645779
 101.7728235  60.6857664  18.2882416 102.5779320  60.3180487  19.5160782
  29.6334291 101.4675903  86.8398571  29.0413499 101.7656803  87.5303841
  29.4043779 102.0031261  86.0802746  41.6321516  97.1485996  62.8153992
  41.1162138  97.6750088  62.2047138  41.6970634  97.6896381  63.6023521
  17.1665908  20.7091808  86.5908337  17.0494104  19.9666786  85.9982204
  18.1153406  20.8223152  86.6483402  89.2544331  12.6798374  22.3305618
  89.2421331  12.0510656  23.0521786  88.5165073  12.4238617  21.7772305
  79.9983229  43.3534414  10.7775318  79.5104481  43.8781244  10.1427757
  79.7956281  42.4472029  10.5454170  63.3873964  17.8719139  78.0384207
  64.2005850  17.7571296  77.5467110  63.6428214  18.3797645  78.8085413
   2.5715834  68.7142992  55.7244873   2.3371707  68.3464527  54.8724461
   3.4394926  69.0950680  55.5903959  15.7568458  56.1910898  20.4921448
  15.6303886  57.0551664  20.8840668  16.5831474  55.8792765  20.8612454
  24.3655300  68.7726545  74.1790485  24.2595434  69.7233105  74.2143679
  24.5796919  68.5893536  73.2642984  99.5117761   7.9136545  18.4604942
  98.6882116   8.0651504  18.9241993  99.2634632   7.8778870  17.5367558
  45.4655571  10.1501274  68.4237957  46.1150575  10.8064460  68.6760473
  44.6376330  10.6298541  68.3985281  92.9336383   6.7742283   0.0853932
  93.7437238   7.0615179  -0.3358639  93.1466271   6.7432482   1.0180771
  47.2143484   1.8253993  80.0834656  47.2509528   1.6398525  79.1451406
  46.5289158   2.4879074  80.1700497  92.1375252  16.1755163  33.5062611
  92.2946693  15.8263046  32.6290047  92.2266974  17.1232969  33.4062874
  97.6556803  39.5772917   1.6319668  97.3281266  40.4724390   1.5444863
  96.8700673  39.0310938   1.6052735 110.5532290   4.6332724   4.1953480
 109.7499801   4.8323948   4.6763622 111.2264015   4.5625240   4.8721516
  34.7723198 103.8797379  82.9052162  34.9651217 104.8146629  82.9757118
  34.2555070 103.8015556  82.1033287  15.6115294  76.6811974   2.1215641
  14.8124243  76.4453967   2.5928032  15.5769516  77.6353748   2.0538819
  88.0504729  14.4046957   3.3728134  87.6569761  13.7177498   2.8347599
  88.2088556  15.1253206   2.7630245  56.8530464  68.9152288  87.2737503
  57.2122812  68.3940697  87.9917812  56.1406565  68.3807516  86.9229412
   6.7481512  51.5575171  73.1103611   6.1535162  52.1197319  72.6138115
   7.4997598  52.1171522  73.3056259  25.4075408  98.3322525  63.4374857
  25.0715995  97.7768421  62.7339983  24.8498249  98.1306744  64.1888523
 106.8258451 104.4156075  80.3587627 106.3033794 104.3431664  81.1575127
 106.5710710 103.6552334  79.8361254  33.1737924  88.1791782  69.3464851
  32.6693678  88.5014343  68.5995293  33.5762978  88.9632797  69.7198725
  37.4365509  -0.3246308  86.5503502  37.9672229   0.1027679  85.8780766
  37.4984732   0.2555942  87.3091221  91.2653043  39.0418417  23.5372555
  91.9268753  39.6989042  23.3208573  91.6427483  38.5539324  24.2691815
  87.6298667  26.7498207  80.4299927  86.9311047  27.1222495  79.8921585
  88.2322408  26.3544464  79.7998762  73.5119949  51.7001326  13.8533604
  73.9865787  50.8881075  13.6755573  73.6247717  51.8425924  14.7931587
  78.9627124  10.4755115  91.3950253  78.3175374  10.6024455  90.6994247
  78.5330678   9.8869609  92.0157146   1.2626627  46.7538721  16.1079323
   0.6760696  47.4334795  16.4400208   2.0990804  47.2012407  15.9794724
  84.4866814  59.7077543   4.5693028  84.4710596  60.2633554   5.3485977
  84.1180314  60.2561266   3.8767540  69.9540735  11.0270690  81.2690353
  70.4572464  10.7362174  82.0296001  70.6128693  11.1895751  80.5939007
  70.2734709  99.6443558  52.8281784  69.6681166  99.5979214  53.5681963
  70.2113962  98.7838268  52.4136019   6.4025548  61.1896498  17.1861469
   7.2549918  61.2867338  16.7616951   6.5821985  60.6666357  17.9674351
  71.1826183  37.6957971  23.2999813  71.5929084  38.3186418  23.8999474
  70.2427383  37.8170568  23.4347164  19.7963333  90.6059742  55.8833218
  19.9177241  91.2647057  55.1995325  20.6652927  90.4996109  56.2703991
  43.3618856   7.1810913  87.1458054  42.6569057   7.3944854  87.7571106
  43.9848013   7.9020690  87.2374535  19.2762950  41.5684778   0.2111351
  20.1217702  42.0085699   0.1232254  18.6740640  42.2595674   0.4867184
  90.3783323  36.8638975  29.6710217  90.3742959  37.1713907  30.5774796
  90.0015773  35.9850389  29.7145569   0.2865485  28.0647642  24.9263012
   0.2505496  27.2789080  25.4716122   0.7668784  27.7920324  24.1445553
  98.5572197   8.1356556  15.8085644  98.5328700   8.9737207  15.3467190
  97.8046514   7.6523287  15.4675877  94.2064275  33.3145887  25.7354271
  94.2943610  32.5617487  25.1508534  95.0582768  33.7493498  25.6958496
  50.9625340  71.5381765  82.7041340  51.5643835  71.8853140  83.3625412
  51.4969444  71.4475822  81.9151878 104.2120840  12.1673710  14.5727074
 104.7287752  11.3684112  14.6772396 104.0826656  12.2469789  13.6276447
  21.0723451  14.7791655  60.5105412  21.6236547  14.4544346  61.2224686
  21.4583352  15.6226427  60.2743351 102.9828383  81.6266233   9.9281418
 103.5973312  81.9848139  10.5687153 102.1369507  82.0029051  10.1712906
  38.6095214  88.1636429  52.6341820  39.2409635  88.4864902  51.9913054
  38.5852551  88.8429642  53.3081055  27.7430606  73.0960226  55.8579159
  28.4587550  73.4579849  55.3354216  28.0695581  72.2469378  56.1557102
  66.1337782  17.0741748  73.7538576  66.5889979  16.4841937  74.3546343
  66.8205715  17.6494216  73.4167671  12.5656274  35.1892740   7.7426350
  11.8295959  35.4322130   7.1809685  13.3195737  35.1672823   7.1533119
  64.1710378 100.0393183   4.3889057  64.3540669 100.4343970   5.2413380
  64.2692400 100.7588942   3.7653744  28.9405823  88.7657261  89.2685699
  28.6102915  88.2270813  89.9876022  29.7903442  88.3817768  89.0524387
  72.6473094   2.4092578  46.4649916  72.6887632   3.3649539  46.4310551
  73.5619379   2.1286106  46.4345121  49.0779305  93.2329750  74.5763302
  49.1854572  92.4660778  75.1389551  48.9545393  93.9612484  75.1851130
  40.9586880   5.8367061  58.5212231  41.1937273   6.7137050  58.8243151
  41.0838381   5.2769184  59.2875147   1.8868762  94.2271614  90.5413246
   2.1501154  94.7951508  89.8172188   2.3715429  93.4145069  90.3966904
   3.3242047  63.0714178  78.1650114   2.4390638  62.7693462  78.3687496
   3.8705087  62.2906590  78.2555676  39.2738247  71.3355970  57.6599169
  38.8104892  72.1419621  57.8864765  39.9810600  71.6202831  57.0811176
 100.8611490  35.3961546   7.8769219 100.0632765  35.6591589   7.4181568
 100.5607821  34.7823126   8.5471451 103.4602095  41.7708380   9.0396988
 102.6874568  41.2107546   8.9662850 104.0552046  41.4479525   8.3629715
  17.7036202  78.9865541  83.8648796  17.3272765  78.1176472  84.0048790
  17.9462075  78.9961529  82.9389858  81.7690654   8.0116064   3.7735760
  82.5645132   8.1049950   3.2493889  81.4102931   7.1626169   3.5152447
  50.8696651  98.4938049  75.5733776  50.2137280  99.0985012  75.9202433
  51.6223383  99.0485954  75.3686094 102.4557616   9.3159849  12.1011555
 101.7677666   9.5076019  12.7384770 102.9533221  10.1309044  12.0335400
  43.3814723  23.5888099  74.7536659  43.4020234  23.4123611  73.8130903
  42.6331351  24.1739559  74.8712873  84.8833640  14.4720823   1.4734947
  85.0157191  15.1133377   2.1717179  84.0062322  14.6595508   1.1392414
  42.9016817   2.0411109  47.1987057  43.3484865   2.5635242  47.8647947
  42.1152551   1.7160415  47.6369953  47.5480998   8.5566329  67.6650667
  47.3491586   7.6902961  68.0202103  46.7397470   9.0554141  67.7834320
  67.3846097  20.2748043   1.6885960  67.0277907  19.6697599   2.3388588
  68.1836505  20.6150562   2.0910847  98.5420777  37.2406084   4.0745556
  98.1643631  36.9520170   3.2437241  99.4405986  37.4879343   3.8560974
 112.3911171  72.4934721  88.3248520 113.2762866  72.7382803  88.0550861
 112.4501388  71.5581465  88.5195732  10.6630233  44.2018492   3.0123722
  10.4513696  43.4493906   2.4598801  11.1934236  44.7685892   2.4522793
  37.3225927  76.6560984  61.4245224  37.6204848  77.5514030  61.5855360
  37.8934765  76.3356638  60.7262039  62.1892429 105.4646571  11.0218060
  61.6332031 105.5725176  11.7934429  61.5752817 105.3103240  10.3038513
  21.3188982  90.3633118  90.8497047  22.0465565  90.8734703  91.2053490
  21.0850215  90.8133984  90.0379467  93.3996584  46.6691191  17.0012486
  93.2416417  45.7530577  16.7729866  92.9903223  46.7760546  17.8598702
  18.2715142 103.5707188  40.9218740  17.8735626 102.7003193  40.9384108
  18.0261350 103.9622402  41.7601633  37.8819871  99.9906349  83.0731773
  38.7609410 100.1098061  82.7133656  37.4017859 100.7707977  82.7957249
  83.1965841  48.7840635   2.4104511  83.9725633  48.6852533   2.9621041
  82.4601127  48.7068636   3.0169785  69.1901470 104.7477467  13.8364517
  68.6524583 105.0717480  13.1138527  69.1885830 103.7966616  13.7284386
   5.3607324  26.1769277  17.3813736   5.3951886  26.5781099  16.5129864
   4.5336011  26.4825756  17.7537644  54.0070629  93.5186768  92.2379017
  53.6051464  92.7047729  92.5416279  54.9178076  93.4582043  92.5262070
 109.2327477  43.5643846   0.7342922 108.5179426  44.0729124   0.3512966
 108.9795782  42.6520044   0.5939495  12.4924088  51.5191174  71.0094547
  11.5592110  51.6937017  71.1314917  12.8616047  51.5628147  71.8915081
  68.5868533  25.5434067  19.7793114  68.1423779  25.3655083  20.6081879
  68.7976332  26.4763910  19.8159992  64.5536495   3.8015556  61.7488050
  65.4970837   3.9066123  61.6258144  64.1799522   4.6328544  61.4563465
  21.1721280  33.3210833  16.2994110  21.6016296  32.5798876  15.8723461
  20.5471090  33.6425955  15.6496250  48.9646281   1.7776393  73.5250282
  48.6902226   2.6743125  73.7171268  49.5395578   1.8608856  72.7642679
  56.4190949   2.8276157  69.9940920  56.5768123   3.7556266  70.1677036
  56.2738801   2.7820396  69.0490675  46.5656299  41.9174957  71.4145517
  47.4107290  41.9044017  70.9652519  46.2192393  42.7940940  71.2477255
  80.7327128   7.2606372  61.3666964  81.5679885   6.8847751  61.0887051
  80.1396943   7.0947456  60.6338644  15.2220547  92.9299068  85.3744888
  15.9463298  93.5522079  85.4407501  15.1978421  92.4987221  86.2287331
  42.3450041  97.7537823  80.7822037  42.4610710  97.9687881  81.7076969
  41.4081717  97.5790310  80.6925774  49.3908954   5.7309055  65.2449465
  48.6510135   5.2015781  64.9472475  49.1332401   6.6324424  65.0524235
  25.5594778  76.5422678  54.8983717  25.7882214  75.6656265  55.2072573
  26.3357258  76.8389702  54.4233561  47.2564554  86.6822910  88.6161137
  47.0123577  85.8797169  89.0771103  46.5038300  87.2625542  88.7304878
  47.9199886  96.4028835  72.3117876  48.7900448  96.6618443  72.6153898
  47.7389288  96.9881535  71.5763235   7.1994403  21.3761503   9.1855251
   6.4837411  21.4444143   8.5535824   7.1979192  20.4564077   9.4506848
  42.7314901  98.0989456  76.9359541  41.8352652  97.8904247  77.1996403
  42.8076315  97.7487564  76.0483694 111.9231273  26.4180262   8.2086384
 111.8453981  25.7051594   8.8426792 112.8602769  26.6105539   8.1783974
  57.3818159  94.0331459  73.9452505  58.2541704  94.4231129  74.0014458
  57.5374699  93.0899620  73.9943123  88.0187988  72.6179123  61.8219042
  87.5725746  72.1264029  61.1323118  88.6642933  73.1504107  61.3571310
  43.0628395  80.7621670  34.4016171  43.3761501  80.4606342  33.5488844
  43.8427687  80.7635307  34.9565458  32.2294879 104.9701881  71.3395977
  33.1250978 104.6375656  71.2806273  32.2228765 105.7420158  70.7734919
  86.1569310  15.2311706  86.8743229  85.6068707  14.6916961  87.4423218
  85.8534575  15.0328349  85.9884357  40.3181505  67.6666260  23.8296103
  39.3652034  67.7161169  23.9049244  40.5910015  67.1422863  24.5825052
  37.5739670  99.7204590  90.9754848  37.6277542  98.8051033  91.2501812
  38.3797717 100.1174736  91.3060665  54.6155500  97.0298958  91.8772221
  54.7594118  96.5691662  91.0506344  55.2726555  97.7259064  91.8809986
  44.8152590 101.6823483  78.4561872  43.9606905 102.1056938  78.5381222
  44.7622538 100.9217930  79.0349674  63.8592339  85.4329109  63.1443977
  63.6608362  84.5265388  63.3796549  63.3179712  85.6043053  62.3737574
   0.2690438  22.6117260  19.0765488   0.8412913  22.8705580  18.3542072
  -0.4682466  22.1726162  18.6525070  32.0927835  75.8054161  88.9119816
  32.9446721  75.3826189  89.0204430  32.1530843  76.2526178  88.0678272
 112.0539452  17.8608782   1.9726860 111.6791441  17.3935682   2.7192604
 111.3011004  18.2629139   1.5392983  28.3602384  64.7166998  18.4011376
  29.0472987  65.2642900  18.7810337  27.5718215  65.2578432  18.4435093
  33.4410432  66.3341982   3.7671196  33.7588027  67.0521624   3.2195961
  32.6312879  66.0499556   3.3431732  84.3596698   3.7159442  56.1966848
  84.4093324   3.2212257  57.0146179  83.4583903   3.5948944  55.8978939
  68.8983393  81.0215759  70.1986074  68.6441326  81.8963718  70.4924679
  69.3684006  81.1716270  69.3783903  79.6962929  96.9839859  73.0956650
  79.1357756  96.8272495  73.8555861  80.4656029  96.4352512  73.2482386
  94.8097922  62.4863798  23.2432472  94.5809986  63.3023436  23.6883175
  93.9757551  62.0283968  23.1390297  80.6073953  29.9917125  64.9296093
  79.8888255  30.6175231  64.8388052  80.2200652  29.1472148  64.6993113
  59.6020532   6.6471385  79.3400717  59.4915748   6.2970924  80.2240944
  60.2263237   7.3653888  79.4431591   3.2297281  49.0907843  36.5956795
   3.0641416  49.1448957  37.5368988   2.4923662  49.5519525  36.1958611
  53.1497539   8.0676937  60.9326029  53.8705648   7.9290962  61.5469742
  52.9185868   8.9904689  61.0388327  48.5416126  69.0600204  52.5851345
  47.9184771  68.4059858  52.2686386  48.2515955  69.8801470  52.1857405
  84.1878112  42.7540190   1.3144123  83.7536396  43.5613138   1.0387432
  85.0286807  43.0432302   1.6687023 101.3319613  58.9471418  11.3051140
 101.9149281  59.2639810  10.6151879 100.9240820  58.1649572  10.9335529
  22.3343089  22.4856502  16.4058602  21.6792157  22.6663238  15.7317459
  23.1734660  22.6379711  15.9712994  88.2134248  10.3306388  75.7123232
  87.3832560  10.2299690  75.2465773  88.6789037   9.5096874  75.5523300
  24.5503855 106.2603092  56.4140987  24.3816042 105.4074669  56.8146038
  24.2066956 106.1793423  55.5244064  31.1235523  87.2974205  73.2939720
  31.1095691  87.4483967  74.2390871  30.8480287  86.3863277  73.1928635
  86.8223311  42.9252607  12.6656162  87.1160604  42.2917349  13.3202946
  87.1076967  42.5558645  11.8299496  89.3780566  10.4106426  71.8897772
  89.6071435   9.6276378  71.3891172  88.4320975  10.5004787  71.7743444
   0.4242638  38.2033712  18.2042896  -0.3494593  37.6543981  18.0769360
   1.0007599  37.9778368  17.4742043  96.4909865  42.0921785   2.1711456
  97.1416761  41.8538935   2.8314984  96.8770196  42.8386862   1.7129528
  34.8168805  38.5719377   1.2146008  35.7202915  38.6029608   1.5294277
  34.2853263  38.7156851   1.9975483  44.4637346 100.9562206  87.7338982
  44.9334908 100.1621532  87.9888916  45.0807571 101.4311790  87.1771908
  43.5674501  13.1796073  76.8758535  43.1521577  13.3670997  77.7176428
  43.1275965  13.7622356  76.2567329  57.4495471 103.1863148  22.8377926
  57.1097387 102.3102028  22.6556122  56.7089201 103.6553319  23.2221424
  26.5371466 101.4943600  63.3610058  26.8360138 101.8127060  62.5092030
  25.9710407 100.7508755  63.1536722 105.2775288  11.6395187  43.4545135
 105.9047414  11.4973449  42.7455521 104.5512725  12.1068000  43.0416632
  47.6915455  59.4634199  64.4044495  47.5378990  60.0391912  63.6553764
  48.5451460  59.0667486  64.2305231  88.9878559  87.1810722  66.9944906
  89.0567303  87.9636097  66.4475679  89.1057205  87.5024796  67.8883791
  20.6391931  97.6612854  36.5605593  20.3614569  97.1640205  37.3298621
  21.5930867  97.6983356  36.6308689  80.0770760  36.6763591  88.8754082
  79.9227429  35.7658481  89.1271877  79.4702769  36.8308067  88.1514168
  70.3415394  82.3992443  83.1269169  70.5779934  83.3092785  83.3062458
  71.1803675  81.9453430  83.0458260  97.9465867  11.1482047  43.9228868
  98.5067368  11.4449977  43.2056856  98.4217311  10.4125213  44.3092012
  52.8193057   9.5928478  86.6946602  53.4944535  10.2096366  86.9774628
  52.2574306  10.1034545  86.1117268  52.1064568 103.1106567  90.8803844
  51.4667988 102.4049950  90.9758091  52.5395298 102.9301643  90.0460529
  18.1694845  54.7560961  21.6768658  18.9399484  55.2531034  21.4019119
  18.3768371  53.8490564  21.4521324  56.4357519 106.3697624  45.0263929
  55.9803915 107.1278954  44.6601820  57.2705412 106.7193413  45.3381014
  21.8155766  58.7453508  91.8249416  21.7476439  59.0341520  92.7350044
  22.5354123  59.2619991  91.4628029  58.6906815  27.8986453  80.1832676
  58.7436272  27.1547508  79.5832205  59.4914175  28.3965969  80.0186729
  80.7228900  13.4563636  53.5667658  80.5054427  13.9127159  54.3795967
  81.6654254  13.5873603  53.4633207   2.6872495  56.8264276   7.8248417
   2.3425535  57.5540335   8.3425247   2.8369573  56.1285097   8.4625923
   3.5225868  99.9927998  56.0657358   4.2242754 100.6438446  56.0687065
   3.8935554  99.2387390  56.5239954  86.5608788  74.3907499  63.8455725
  85.9236050  73.8347769  64.2939138  86.4749336  74.1564226  62.9214811
  51.5236521  77.3036861  57.1870327  50.9114504  77.2069883  57.9164696
  51.9936228  76.4703512  57.1566963  18.5671190   9.8625595   1.7094814
  18.9844468  10.3027040   2.4499905  17.7231983  10.3038675   1.6131889
  12.2033027  30.7680685   2.7826035  11.4109186  31.2901003   2.9084313
  12.8657440  31.4011270   2.5057709  71.9212318   3.3327865  86.2215137
  71.1064649   3.6903285  85.8685970  72.0269919   2.4924278  85.7755852
  10.1286557  61.2354166  10.6790554  10.7042316  61.2641222   9.9147808
   9.2692426  61.4874918  10.3412735  97.7771617   4.9486255  68.0818701
  97.3166657   5.7401752  67.8032684  97.8984738   4.4460296  67.2763157
  14.9034226  97.4132538  71.9789505  15.6099474  97.2514915  71.3537407
  15.3444862  97.7607059  72.7541733   8.3528330  12.1979141  75.9645700
   7.4571040  12.5240707  75.8778524   8.8992407  12.9036712  75.6187773
   2.4387887  31.4519674   7.7777683   2.1452716  32.1340639   7.1737587
   2.6873449  30.7213575   7.2114861  10.5348399  51.9772036   7.4010670
   9.9484256  51.2264425   7.4944222  10.2148917  52.6121694   8.0419075
  48.9338601   9.3200683  60.5175781  48.6929644   8.6408138  61.1475134
  49.7067226   8.9714622  60.0732899  12.4121526  47.0932371   4.0522396
  12.4145463  48.0393583   3.9070713  11.9069150  46.7398436   3.3200657
  60.0573158  80.3093815  66.7729187  60.6177807  80.3787041  66.0000658
  59.8463106  81.2155437  66.9978189 112.0284321  38.8479311   4.0317070
 112.4337675  39.7099096   3.9372456 112.5995518  38.2593138   3.5381615
  73.7743879   6.4488601  75.2341938  74.6280051   6.4779090  75.6663132
  73.4517980   7.3488807  75.2803755   2.6323622  81.0780239  31.2890458
   1.9997910  80.3859901  31.4818406   2.4034140  81.7862511  31.8908978
  33.0788660 102.3933506  90.5006981  33.0025458 102.8304291  91.3488579
  33.4205198 101.5238476  90.7092190  93.9318038  16.1813831  87.4386406
  94.2913628  17.0009708  87.0991898  94.6334220  15.5422782  87.3141193
   9.4386962  15.1891024  20.9388172   9.5666650  15.3364403  20.0017178
   8.5740331  15.5560333  21.1230766  93.9200116  29.4524097  91.7531776
  94.8723889  29.4380760  91.8480778  93.7451125  28.8800716  91.0061359
 102.9509522  54.4880468  16.2315380 103.0758764  55.1226122  16.9371998
 102.0183136  54.5422346  16.0230267   9.4634917   7.2581291  39.2926049
   9.3937972   8.1626987  39.5977664  10.2609923   6.9268417  39.7054911
  48.8597202 104.7203350  71.4900351  47.9969358 104.4470596  71.1783409
  49.0963030 104.0643978  72.1457815   7.8475097  36.4089186  19.1295731
   7.7926639  37.2685511  19.5470059   7.0034698  36.3012869  18.6911118
  23.8307905  85.3337383  65.8716393  23.8725734  85.6252480  66.7824125
  22.9059982  85.4118252  65.6373501 106.0234906  60.0791914  24.1983807
 106.2473323  60.4580576  23.3483326 105.9876777  60.8286840  24.7927010
  94.1900445   3.3723831  50.7348204  94.9699403   3.7872791  50.3662491
  93.5503293   4.0813159  50.8012581  64.9754120  25.6174850  53.3177280
  65.5527378  25.5817890  54.0803909  64.0961624  25.4993820  53.6771774
  96.3900592  58.8063986  16.5518582  97.2558500  58.4466631  16.7448151
  95.9640004  58.8764936  17.4061405  21.3950971  29.2951185  15.6401550
  21.7640737  30.1442797  15.3972256  21.6479781  29.1772062  16.5557873
  98.9664175  60.6550867  13.9225876  98.7616994  60.8655912  13.0115330
  99.9205472  60.5811865  13.9427578  17.7478889  41.8996984  19.9905693
  17.2467044  42.7090532  19.8905670  18.3831075  41.9213468  19.2748463
  53.0773116   9.3507289  48.6463070  52.8796519   9.6276092  47.7516031
  53.8034547   9.9129867  48.9161348  69.4737125   1.7557811  86.4308834
  68.5563041   2.0246601  86.3829517  69.6097065   1.2269687  85.6446934
   4.6567932  99.3212032  73.9791441   4.4702268  99.7258186  73.1319714
   4.2709136  98.4474087  73.9174032  45.4823831  54.2601854  14.2427742
  46.1326268  54.5756132  14.8703968  45.8634523  54.4525320  13.3860218
  90.3861953   1.2256908  44.0000296  90.5305863   0.3114795  44.2441368
  91.2648297   1.6024398  43.9521122  13.1004548  88.0588341  53.3017921
  12.4605858  87.7811909  52.6462698  13.6366558  87.2813416  53.4574366
  88.2097102   4.9048805  87.3763561  87.8640176   4.3280887  86.6951561
  89.0397359   5.2236175  87.0218182  22.2280553  58.1755144  12.4961388
  21.8632320  58.9551241  12.9148781  21.8039325  58.1435472  11.6386234
  26.4813855  47.2344191  12.9232704  26.3857320  46.4265806  12.4188053
  26.9675020  47.8219492  12.3447048  48.2269239 100.7922363  86.3642025
  47.8074408 100.0093746  86.0072899  47.5342655 101.2311077  86.8580151
  47.0331192  88.7065411  91.5501690  47.6590872  89.3575382  91.8673420
  47.3836660  88.4297657  90.7035637  79.9511958   0.9412574  66.4394712
  80.2191640   0.0362014  66.2804413  80.3556014   1.4391422  65.7289791
  31.0560274  95.8602428  71.7740345  30.2098227  95.5914783  72.1317148
  30.8918452  95.9864807  70.8395100   5.2519849  50.4807646   2.9800522
   5.1687673  51.1570150   3.6523640   5.9617618  50.7891447   2.4167168
  22.4328044  53.9384348  27.5537693  21.5074876  54.1056044  27.7328503
  22.6463321  53.1746752  28.0897820  19.3034601 101.8699169  92.1341705
  19.1953516 102.8099155  92.2789001  18.4987330 101.6017628  91.6906166
  24.9759984  74.8685837  77.5126171  24.5175672  74.5207930  76.7476892
  24.9070597  75.8189487  77.4215460  85.5780377  46.2310392   0.7823670
  86.1181606  45.5115110   1.1091149  85.8841898  46.9987471   1.2652027
 109.4921972  49.8605139   6.4489662 108.8399769  50.2987654   6.9955647
 110.3228451  50.0106413   6.9003212  52.1241046  10.9405994  79.8189926
  52.9846669  10.5247688  79.8714066  51.8176115  10.7460117  78.9333105
  47.4803638  90.9940910  70.0943041  46.6604424  91.2271881  69.6588469
  47.7868700  90.2166653  69.6275091  35.2303433  88.2580280  57.8363562
  34.3918300  88.7057304  57.9489803  34.9956274  87.3393822  57.7050400
   8.2826427  44.8009092  21.6027271   8.9396718  45.0309832  22.2597038
   8.0626539  45.6323702  21.1825859  10.6514838  34.5978147  25.7571137
  10.2699140  34.8447306  24.9146950   9.9009279  34.5176870  26.3457405
  44.3356895  93.8357925  90.8488655  45.1350117  93.7248802  90.3340626
  43.6658764  94.0653324  90.2047443  49.4249201  97.1601582  86.9111919
  49.8149538  97.0586681  87.7794075  49.2032385  98.0896664  86.8553734
  62.4675632   7.5115775  77.2730684  62.1050788   7.8298473  78.0998373
  63.0935360   8.1864166  77.0104361  32.3525691  97.8011322  85.9878254
  31.4412570  98.0291843  85.8041573  32.5583196  98.2695675  86.7968178
 107.2839977  41.2598307  19.0624439 108.0239631  40.9400541  18.5462773
 107.4178268  42.2063333  19.1120732  95.5949976  14.4960672  12.5640595
  94.6470262  14.4070179  12.6623165  95.9590651  14.0145666  13.3069241
  44.4808102  98.7809753  83.8796520  44.5373726  99.7119713  83.6645317
  43.6740589  98.7013435  84.3886185  15.7002568 104.1283321  85.2459145
  16.0863602 104.9971390  85.1348495  15.0116992 104.2539310  85.8988667
  57.6203397 100.8601553  11.0153782  57.9120687 101.3303930  10.2343475
  58.3899167 100.8399755  11.5842068  40.6029129  83.9240456  61.8758678
  41.2964201  83.3742714  61.5111494  41.0581064  84.7028160  62.1961069
  81.5362645  15.9148216  83.1850243  81.9221402  15.0495243  83.0486488
  82.0640469  16.5006542  82.6423740  47.8187513  76.0040379  69.1164303
  47.6011992  76.6837358  68.4785366  48.7752533  76.0071373  69.1529179
  88.2294668  36.2296087   3.5927784  88.8979246  35.5471785   3.6533844
  88.0284216  36.2856657   2.6586067 103.5594632  37.5735266   9.1895878
 103.2998897  38.4910662   9.1061127 103.4812571  37.2208864   8.3031475
  51.6456688  16.8580436  36.4037275  51.6210092  17.1419715  35.4899383
  52.5601400  16.6196632  36.5558720  73.0787420  91.1363220  75.5580616
  72.8162956  91.2580395  74.6456289  73.0533266  92.0162392  75.9340143
  77.0952320  80.1632404  69.3789434  77.9472923  80.5258846  69.6212626
  76.4612103  80.7133293  69.8390055 103.1808855  42.2600824   1.1989796
 102.9371835  41.7488272   0.4273235 104.0599419  41.9535620   1.4215481
  47.7752304  98.1706047  83.5830212  47.0196009  97.8275585  83.1059742
  47.4351788  98.3773422  84.4535732  75.1187421  11.5383529  86.5222836
  75.5706573  11.8705940  85.7466412  75.5256797  12.0025920  87.2537994
  77.9348136  23.1976795  86.6087055  78.0551005  24.1274738  86.4157200
  76.9904519  23.0585193  86.5376282   8.9615682  61.4636785  16.1362374
   9.4476035  62.2845632  16.0577881   9.1244129  61.0089952  15.3098118
  46.0127783  98.4748840  88.3523941  45.3746653  97.9712963  88.8578033
  46.5477753  98.9151001  89.0128708  57.1434355  83.0675507  72.9971695
  56.8965006  82.7127171  73.8511944  57.6301670  83.8661003  73.2012415
  15.6948614  98.6749077  84.5623112  15.2910912  99.4051743  85.0312614
  16.4915967  98.4837151  85.0571728   6.0766223  63.6193544  16.0369408
   6.9910291  63.8136942  15.8312142   6.1142686  62.8224832  16.5659058
 108.3570005  63.1649572   0.5027878 108.5120393  63.2734568   1.4410984
 109.1236283  62.6865656   0.1871025  42.8652954  78.4058285  69.1068935
  43.5721827  78.9055109  69.5153809  43.3022785  77.6506472  68.7132168
  20.2474263  63.6419184   9.7223007  20.8161548  63.8623793   8.9846241
  19.5364908  64.2811949   9.6760285  33.3138850  60.9176714  13.2988941
  32.7330545  60.8481581  14.0565502  32.8437188  61.4850027  12.6879131
  93.6205806  32.9495222   6.4023125  93.4050347  33.8681871   6.5629780
  94.5565046  32.9546434   6.2016785  42.9632295   1.3753890  83.5052109
  43.2999993   2.2641849  83.6185741  42.5241620   1.1782646  84.3326092
  11.6126636  38.1731207   3.7063133  11.5223220  38.9763624   3.1935990
  11.0473541  38.3094484   4.4666302 108.9975892  99.1745663  85.6289005
 109.4710784  99.8591423  86.1015511 108.3126239  98.8943005  86.2359524
  52.8947258 100.0579834  74.4338369  53.0894089  99.8330688  73.5240364
  52.4600601 100.9092522  74.3823767  96.7713620  45.8429224   5.8325970
  96.9763543  45.5500395   4.9446594  97.2253277  46.6811735   5.9191048
 102.5833275  57.2774965  17.2146809 101.8493892  57.1853811  16.6071617
 102.3135282  57.9748899  17.8122532  70.6184816  87.8853798  88.1957817
  70.9871674  88.7341022  87.9508972  70.3731394  87.9871655  89.1153908
   7.7096704  44.3673880   0.7203400   7.9958871  45.2623159   0.9031307
   6.8221858  44.4655020   0.3753960 102.1867348  85.6849462   7.7769959
 102.1812035  85.4150373   8.6953365 102.7159335  86.4824659   7.7649319
   4.0522054  29.3241865  19.8826706   3.9197877  29.3674356  20.8296787
   4.8939803  29.7564680  19.7385323  80.1334668  25.2152442  66.5318727
  80.3611899  24.4908142  65.9491396  80.9692431  25.6411647  66.7224121
  15.8438113  24.6635897  16.5421498  15.2794126  25.3008015  16.1043751
  15.5499891  23.8153297  16.2099468  60.1596975  75.2387333  81.8049335
  60.8285332  75.8485508  82.1163940  60.3110218  74.4392920  82.3091412
  28.6215329  72.1386433  70.8743429  28.1221032  72.7931738  70.3860950
  29.1016889  72.6440477  71.5302801   5.6625608  79.0107328  16.4846527
   6.4499238  79.5060999  16.2590611   5.2423576  79.5285398  17.1713459
  84.3311454   8.8958358  83.3140945  83.3894587   9.0650272  83.2852840
  84.5484115   8.5995769  82.4302101  25.5546382  44.3232424   1.0569107
  25.6114724  45.2428705   0.7975304  26.1983445  44.2323286   1.7594826
  53.1158209  82.3282623  91.7569065  53.1537819  81.3801098  91.6312695
  53.9697409  82.5554848  92.1249008  12.0324519  66.9739897  21.2022412
  11.9755319  67.8384573  20.7951939  12.9674819  66.8454248  21.3616764
  30.7497144  86.7388058  78.3284330  31.2971258  87.5122929  78.4636927
  30.1990032  86.6954613  79.1101408  62.9903985  10.8873081  61.1616707
  62.7218915  10.3095626  60.4472828  62.2304417  10.9187507  61.7427969
  17.3818544  29.1991121   6.4590656  16.7951968  28.8543779   7.1322834
  16.9186214  29.9573595   6.1031162  66.8273378  11.4015579  85.9327316
  65.8944989  11.4973640  85.7407284  67.2173358  11.1364936  85.0997448
  70.8913399   5.0727844  83.6470413  70.6829096   4.5632171  82.8640079
  70.0926352   5.0402736  84.1735840  65.9430076  32.3640918  45.1824808
  65.5735994  33.2448863  45.2455330  65.6732155  31.9326209  45.9932041
 111.0872390  45.9562475   7.0865643 110.1861884  46.2581999   7.2013104
 111.0801055  45.4942686   6.2482559  98.5391236   8.1182479  80.4259396
  98.3106519   8.1933784  79.4994450  99.3742848   7.6505660  80.4295158
 110.8703925  59.3413431  12.3093426 109.9247123  59.4885427  12.3252785
 110.9636761  58.3952028  12.1982205  34.1843820  84.4698334  51.8274117
  34.0112519  85.4091454  51.8902779  34.8237634  84.2973518  52.5185490
 110.7872392  57.7252848   6.0516846 111.4895941  57.6987345   6.7014706
 110.6172539  58.6581213   5.9207165   0.8248951   5.8071708  65.0110102
   1.0261824   6.7166614  65.2313185   1.0530379   5.7289791  64.0846920
  45.5335426  75.4505110  70.6044483  46.2672234  75.5754662  70.0025129
  44.7582912  75.6616354  70.0842190  63.7634563  95.5241680  57.3019981
  63.6183643  94.6656418  57.6996374  62.8950787  95.9260178  57.2762156
  54.3387178  40.2754862   0.3024685  55.0698045  40.5709440   0.8451092
  54.7079328  40.2023203  -0.5776203  49.3022108  91.5074730  91.3851738
  49.0051174  91.6109848  90.4811573  49.7244883  92.3403740  91.5953732
  29.0734914  49.2328436  23.0285751  28.5898784  50.0338346  23.2304680
  29.8426870  49.5330698  22.5443947  91.0958339  19.4617080  80.2991009
  90.3023578  19.3226337  79.7820997  91.2409497  18.6268997  80.7443714
  83.8000011  79.0506554  63.6524725  83.7363720  79.5640850  64.4578123
  83.1427383  79.4338179  63.0715942  51.3825512  84.0550709  36.0317326
  50.9342337  83.4399796  36.6121745  51.9416332  83.5037136  35.4843140
  15.2519870  98.4156704  90.1568413  14.7068763  97.8914165  90.7435608
  14.9518526  99.3147087  90.2905560  31.3033822  72.9073412  11.9474804
  30.4360488  72.8124411  11.5538323  31.8861059  72.4228174  11.3627636
  17.8668261 101.7372322  57.1649647  17.0981503 102.2994328  57.0685768
  18.4971571 102.2736835  57.6457262  20.3619483  53.6797029  11.8441975
  20.8137897  53.1841833  11.1611664  19.7375778  53.0578501  12.2179520
  83.7985183  98.5847552  33.2285416  83.1113768  98.6562426  33.8910782
  84.6155454  98.6542494  33.7223732 102.7678157   9.9288558  86.5228176
 101.8513680  10.2047824  86.5376186 103.2514525  10.6866645  86.8515396
 112.1335460   0.8906173  84.8518181 112.4600268   0.0680828  85.2166271
 111.6225577   0.6270885  84.0865231  16.1836532  25.6095631  18.8563072
  15.3633598  25.9125359  19.2456162  15.9322980  25.2819378  17.9927551
   3.4853962  83.9978313  49.4187593   2.6083323  84.3812180  49.4172239
   3.4792456  83.3828354  48.6852932  30.2882102  68.3238108   6.1404526
  30.4498533  69.1987020   5.7873737  31.1194709  67.8627664   6.0278904
  45.2057031  42.4572069   9.8871147  44.5163873  43.0807192   9.6583759
  45.3668836  42.6093180  10.8183014  62.2077465 101.7938137   5.1237351
  61.8078089 101.5585899   5.9609652  61.9334221 101.1000919   4.5239606
  94.0828146  57.6215727  -0.0730026  93.7516131  57.5071031   0.8177387
  93.3113755  57.8614599  -0.5863941  67.1562958  62.9655218  87.9304790
  66.5860176  63.0090141  87.1629333  66.5612698  63.0466413  88.6758614
   0.6624749   7.7193927  82.6989079   0.6561997   7.4911212  81.7693520
   0.3727391   8.6313533  82.7235508  21.3680747  15.1993274  65.4295254
  21.5238574  15.8125781  66.1477804  20.5540087  14.7549629  65.6662989
  68.3558799  14.4886588  90.1976967  68.3821965  15.4419994  90.2794552
  67.9046107  14.3317699  89.3682575  70.1936365  40.5848503  88.3963871
  69.4326902  40.6908988  87.8254795  70.5847455  39.7552204  88.1225491
  77.6504472  92.7369577   7.9976952  78.4877542  92.3949701   7.6843369
  77.3960546  93.3857519   7.3415100  51.8348598  96.7359447  89.2884159
  52.7020121  97.0289421  89.0083694  52.0031166  96.1886883  90.0555038
  65.2429796   0.3021240  91.9596386  65.3764654   0.6669616  91.0848236
  64.6399928  -0.4289437  91.8248081  81.6359378   8.4190940  79.2951679
  80.6913758   8.2655811  79.2734671  81.7438603   9.2993926  78.9350891
   1.8370965  70.3541452  11.8433773   1.5015319  71.2481195  11.9099343
   2.5121692  70.4014952  11.1664211  92.2506918  58.1003935   3.9401638
  92.6888766  58.7595255   3.4018624  91.4643170  58.5397417   4.2639172
  61.2128807   8.8247203  79.3887520  61.9642592   9.2924690  79.7532797
  60.7427741   9.4857788  78.8805866  54.8008442  76.9631195  80.0621414
  55.5790997  77.0345116  79.5094585  54.5683670  76.0351467  80.0297165
  89.6201897  39.6525859  56.8687391  90.4854441  39.9176216  56.5567780
  89.6204043  38.6983394  56.7935181  42.2758913 107.0297813  72.5635195
  41.9954157 106.1327171  72.3822975  42.1892929 107.1207237  73.5124445
  64.2428637  15.5431461  55.4563951  65.1736904  15.3278255  55.5149603
  63.9610840  15.1633930  54.6241570  96.6913939   8.0868053  59.6847057
  96.0520221   7.4081706  59.4681454  96.3492633   8.4928035  60.4811621
  47.0715192 103.6241609   7.1940052  46.5872815 103.5170061   8.0126965
  46.4934114 103.2589132   6.5242207  17.0702699  85.5410273  10.4281246
  17.6512435  85.6702501  11.1777985  16.6438821  86.3893492  10.3065312
   3.3202174  24.8454475  46.9394827   3.2421353  24.6205520  46.0123587
   3.3006003  25.8022975  46.9563103 100.8139277  17.9805087  72.5066042
 100.9482861  18.6690425  73.1578350 100.3197337  18.4064388  71.8061876
  69.4443608  11.4948081  57.8308487  68.4883667  11.4633560  57.7945518
  69.6697760  12.3513030  57.4677467  51.1855591   4.4552230  56.9718981
  51.4546085   4.8665904  56.1505461  50.5477227   3.7914371  56.7096329
  79.3463326   2.6005268  70.9874392  78.4235669   2.3839378  71.1209583
  79.8204089   1.9816493  71.5428448  96.5583135  74.0456564  22.8557598
  95.7523324  74.1428930  22.3486435  97.1060707  73.4662325  22.3261749
  66.9730378  33.9447879  77.4145031  66.3374616  34.4430351  76.9006681
  67.4202586  33.3932018  76.7726469  78.6641074   6.1885070  90.6313705
  79.1491319   6.8897914  90.1964092  77.9779673   5.9496116  90.0081730
 105.0126887   3.4196185  73.4205008 104.4505883   2.6853465  73.1732798
 105.1456691   3.3129215  74.3623924  67.1592832  25.5165004  76.5884447
  66.5397359  24.9683570  76.1068583  66.8865491  26.4133167  76.3946056
 106.9209243  65.3377706   3.9444840 106.0987045  64.8639757   3.8191616
 106.8468978  65.7186682   4.8195088  53.8501550  12.9789733  77.6391745
  54.0838195  13.8922309  77.8052521  52.9019237  12.9941558  77.5093412
  22.3293546  18.9336426   5.5961620  21.4405635  18.8294203   5.9358799
  22.6977113  19.6549637   6.1063015  80.2872753  81.5677643  83.5921478
  80.8441162  81.4397430  84.3601131  79.4131517  81.7173576  83.9523792
  73.6097670  19.6636485  83.9597225  74.5509744  19.6191501  84.1281891
  73.4589029  20.5666255  83.6802387  13.5152152  38.9433748   7.2832215
  13.2578662  38.7695581   6.3777935  12.8075460  38.5707075   7.8091061
  58.6656427  90.6357670  88.1668663  59.2980909  90.3453732  88.8240623
  59.2025375  90.9875011  87.4567604  70.7861853   6.3282394  69.0943766
  71.1360622   7.0088386  68.5194016  70.6673504   5.5696487  68.5228443
   1.1143448  11.5805339  89.5849037   0.6186774  12.2659015  90.0330257
   1.7358830  11.2662124  90.2415085  88.9524318  26.4537334  62.3366785
  88.6836863  26.9932651  63.0802584  88.2622004  26.5817928  61.6859770
  53.5766185  29.8410892  84.1365433  54.3979431  30.1593398  84.5112038
  53.8101710  29.5591640  83.2521152  62.8752851  82.6213169  73.4488106
  63.1079388  81.7329025  73.7186766  63.3369732  83.1880093  74.0668297
  57.1893883  95.8713055  60.1597643  57.8167248  96.5464401  59.9011660
  57.6715660  95.0493050  60.0700235 109.4606782  26.3780689  69.0456533
 110.0752068  26.3678455  69.7794724 109.9384213  25.9632587  68.3273745
  17.2548869  14.6254157  82.0696545  16.8827155  15.4872322  82.2567368
  17.6650431  14.3579769  82.8921318   1.6888407  54.8148329  26.7586720
   2.4521020  54.7251303  27.3293030   0.9423354  54.8289854  27.3576462
 101.9771577  14.6574115  85.9432411 101.9893361  14.0926456  85.1705074
 102.5470544  15.3910922  85.7126904 111.6513205  26.9764804  61.9349861
 111.7437030  27.5452136  62.6993465 112.2154284  27.3735809  61.2714100
  71.2093259   3.8454532  57.3141003  71.6713310   4.6276569  57.6156616
  70.2891923   4.0193653  57.5124359  63.7313652  79.9133539  74.0008116
  63.1865358  79.6383905  73.2633877  64.6184111  79.6518612  73.7538385
 103.1915236  56.5978717  49.3696737 104.0586854  56.6745471  48.9717054
 102.6070500  56.4083766  48.6357021  20.3599265  68.6398298  15.0520146
  21.2648443  68.7520677  15.3431523  20.1052335  67.7803118  15.3875553
 106.4016963  17.8824710  87.1700001 106.7739440  17.9532527  86.2909985
 106.5818883  16.9803523  87.4344826 109.4839670  69.4116289  23.9050209
 110.1310350  69.8766405  24.4353974 109.9792339  68.7082941  23.4851849
  19.2156613  75.2755785  57.9134846  20.1656127  75.2979088  58.0289268
  19.0722752  74.6156740  57.2351027 103.8405848  21.7629814  64.0634394
 104.4487286  22.4145030  64.4125795 103.3454848  21.4644241  64.8263121
  50.1995134 100.7503605  88.6717319  50.9032822 100.2830029  88.2216930
  49.5180702 100.8542633  88.0075932  87.3913956   0.9222412  60.7039595
  88.0639315   1.6020774  60.7457685  87.4942494   0.5367660  59.8338652
  86.4331771  35.3476524  79.2600584  86.0542966  34.5998001  78.7981129
  85.6931783  35.7461547  79.7181416   4.7351554  49.7368414   9.8735726
   5.2922586  49.3737585  10.5620777   3.9110187  49.9414522  10.3153431
   5.1290468  96.4785463   8.0548489   5.5796388  97.1637518   8.5485089
   4.9604991  95.7907850   8.6989033  91.9336892   4.9315166  63.6425781
  92.4568892   4.8710346  64.4418526  92.1805812   4.1580486  63.1356001
  86.7878056   3.0087089  55.2923250  86.0791684   3.3445644  55.8412075
  87.0550729   2.1941471  55.7181072  47.2121382  72.2653961  48.3929825
  48.0261326  71.8614197  48.0922413  46.6244888  72.2097921  47.6394558
  96.0553075   8.4890270  74.4121552  95.2472068   8.9422702  74.1717863
  96.6780616   8.7297820  73.7262630 102.3572732  19.9337100  48.3489037
 102.4937392  20.5695819  49.0512323 102.6151229  19.0950965  48.7316370
   2.3021271  10.4305362  81.3815975   3.0911019  10.8423137  81.0291767
   2.5947812  10.0009155  82.1853447   9.4077447  31.9223673  35.0173199
   9.9185184  31.7563707  34.2249882   9.4168332  32.8747255  35.1130020
  62.4392605  95.9334469  86.7036057  63.1221437  96.6041946  86.7052841
  62.0765257  95.9587193  87.5890541  89.6850491 106.0189056  58.3450079
  89.1222286 106.3637447  57.6517916  89.6100616 105.0681210  58.2636499
  37.4931502  77.9153156  77.4996948  37.6950693  78.7637186  77.8942537
  38.0165219  77.2883558  77.9989243  43.0505327  63.1470758  42.5567162
  42.5787690  63.7299330  43.1516564  43.8086847  63.6575682  42.2724068
  20.3794386   1.2498569  73.4961987  20.3498366   1.4556884  72.5618601
  20.6698515   2.0620155  73.9112806  78.5699461  14.3655217  84.4567299
  78.2960413  15.1484299  83.9789581  78.7944482  14.6846318  85.3308010
  79.5113537 102.2401888  79.8341131  78.7659449 102.5389052  80.3550434
  79.7746608 103.0097673  79.3294811  90.5048154   7.3989290  84.0432930
  90.3694437   8.3154738  84.2838192  90.3823398   6.9161898  84.8607254
  82.4678383  99.8457152  70.7601929  81.8728564 100.4566902  70.3255224
  82.7849559  99.2790044  70.0569820 108.3279802   6.3439631  34.8833323
 109.1611539   6.4859831  35.3326464 107.9682647   7.2227138  34.7623587
  72.3703865 101.0451139  70.7021189  73.2379123 101.3676334  70.4579639
  71.8399501 101.8357653  70.8008051 103.7669466  35.2887845  71.1232424
 104.6144794  34.8943019  70.9175634 103.1878756  34.5432496  71.2816334
  71.2245939  93.7603081  67.4009562  71.3983155  93.5617436  66.4808369
  70.3107766  94.0448022  67.4161959  42.9832315  24.0708351  40.1580429
  42.3471308  23.3643270  40.0464535  42.5101519  24.7440147  40.6471825
 108.4126855  17.0594203  57.6756954 108.9583026  17.5510764  58.2895422
 109.0271099  16.4909983  57.2113562 106.9756798  23.7844110  90.4165363
 107.1941589  23.2163978  89.6777153 106.7533515  24.6245027  90.0152302
  75.9039474  45.9039952   1.4280903  74.9969912  45.5980409   1.4353382
  75.8580018  46.7804815   1.0461342  48.7975359  27.5420904  65.6956005
  48.8677645  26.9723201  66.4615393  47.8566694  27.6779461  65.5836105
   5.8821708  70.0101948  74.0096521   5.5721670  69.1995239  74.4133091
   6.7363960  69.7833443  73.6421347  66.5046833  93.3874786  53.2580519
  65.8332357  93.2520390  53.9266682  66.2900559  94.2364956  52.8716087
  22.9670215  31.7609596  35.2723479  23.0800271  31.8266988  36.2205791
  22.0339823  31.9209456  35.1306725  11.0605812  10.0539339  56.0415316
  10.2106690   9.6825379  56.2780619  10.8496606  10.8927011  55.6313944
  98.9264594  13.8852465  66.1680555  98.2097755  14.0857863  65.5660772
  99.4211362  14.7022057  66.2321234  83.2258676  26.9523025  59.2582750
  82.6720403  26.5812135  59.9451542  82.6876925  26.9101834  58.4678173
  96.2458657   5.5391425  49.4987345  96.0912560   6.1718720  50.2001476
  97.1658097   5.6614959  49.2642879  91.1028001 103.2389913  72.0808363
  91.7178724 103.5988448  72.7199173  90.8207176 103.9959574  71.5673542
  18.4807611  45.0389624  83.8209724  18.5463727  44.1727161  83.4190464
  18.3465850  45.6352568  83.0843163  63.2583246  89.3430579  45.6272554
  62.8285465  88.7114108  46.2039232  63.4330711  90.0989545  46.1878920
  91.5692495  18.2260764  52.5471449  92.4689673  18.3934295  52.8277397
  91.0278986  18.6106634  53.2365370  70.7749248  89.1510451  58.4196043
  71.5844402  89.0320087  57.9228687  70.6463493  90.0992466  58.4443760
 102.6344429  42.8621578  73.7800217 103.1274496  42.4063969  73.0977774
 102.0230256  42.2052813  74.1130495 105.3571598  41.2245178  48.3742142
 104.9609409  42.0428848  48.0750179 105.1152162  41.1651373  49.2984295
  49.5329202  94.6787484   7.0905125  49.1418351  95.3093512   7.6951801
  49.2248238  93.8270743   7.4002850  19.3462455  18.6250722  66.1091995
  18.7235022  18.1538248  65.5557156  19.1987634  18.2746887  66.9876719
 110.9902920  20.8988905  63.6256218 110.9793684  21.0976028  62.6893377
 110.3312851  20.2129602  63.7325907   3.7423992  24.6751785  90.8113670
   3.3132491  25.4215193  91.2297440   4.3214589  25.0673246  90.1578045
  21.4112449  27.8698635  66.5424204  20.7021618  27.2859788  66.2731409
  21.8240905  27.4209142  67.2801399  51.6454697  96.6931279   9.1320240
  51.5862048  96.1725504   8.3309471  50.9425259  96.3575108   9.6883213
  13.3395565   5.6756586  48.6620426  13.7259173   6.5029150  48.3746386
  13.8003385   5.4655164  49.4742966  23.7651038  35.4656696  50.0684786
  24.2182565  35.8052254  50.8402205  22.9539919  35.9720564  50.0248766
  75.6973885  25.9501052  81.4949608  76.4469765  25.7802677  82.0654964
  75.9119080  26.7734194  81.0563660  78.2969736  15.6481946  46.7600060
  78.0171369  15.2355444  47.5770998  77.7698158  16.4449942  46.7012835
 105.3958921  15.3759301  57.1339607 105.7491164  15.4057729  56.2448215
 104.5093976  15.0307608  57.0280504  21.1056447  57.0950842  68.7719250
  21.6861057  56.4288616  69.1399574  21.0608006  57.7727509  69.4464540
 107.9952977 103.4932784  71.4665127 107.9901454 104.4474331  71.5426302
 108.7397740 103.2144887  71.9996786  20.3123593  48.8045931  70.2291727
  19.8489535  47.9711628  70.1462269  21.1061478  48.5895681  70.7189608
  15.5925333   1.6173807  71.0222292  16.4796937   1.2581189  71.0117531
  15.5839336   2.2551078  70.3084660  52.2326753 103.1011233  73.7939405
  52.4725578 104.0196047  73.9167356  52.5068829 102.8995100  72.8992939
 105.4003225   5.8292395  72.0163727 105.1390873   5.0158662  72.4481249
 104.7204022   6.4579898  72.2584724 103.1919645  48.4639978  57.0824337
 103.9297585  48.8431835  56.6048241 103.5835497  47.7772617  57.6221418
 100.1193224  24.0604377  83.3147335  99.5806836  24.4806623  83.9851856
 100.0475274  24.6367788  82.5538731  85.7680783 104.6929527  80.9715843
  85.1709971 105.2883779  80.5185986  85.2009908 104.1713024  81.5394974
  77.4230073 104.4536551  41.8702173  77.8196170 104.5767288  41.0077858
  77.5423849 103.5226971  42.0580912 109.7292368   6.0088503  79.8898029
 108.7847306   5.8537757  79.8993778 109.8296843   6.8476629  79.4397640
   5.7946664   9.5809525  81.9257164   5.2155012   8.9175171  82.3007488
   6.3481647   9.0968961  81.3128853   7.1499324  59.8344898  52.2812557
   7.4161154  60.6305647  52.7412987   6.2330776  59.7110701  52.5269747
  98.6020038  91.8026162  62.9612875  97.7797768  92.2777022  62.8409958
  98.5468910  91.4495016  63.8492632  11.1588931  66.5299177  63.5907412
  10.5119848  66.2574625  62.9399681  11.9649577  66.0857153  63.3277273
   5.6197751  22.5043321  50.3462648   5.1550972  21.7045307  50.1000452
   5.0058007  23.2101226  50.1434660  58.1578875  50.8470697  11.0211384
  58.4442306  50.8234031  11.9341957  58.2577706  51.7632284  10.7624638
  88.9291725  96.4103175  88.0422211  88.2374833  95.7663084  87.8903961
  89.7138057  96.0125280  87.6649284  59.0382264  82.3322368  82.1328735
  58.8867960  83.2749963  82.0657349  58.4964893  82.0546485  82.8715801
   5.1882410   6.8102604  51.0266924   5.8751261   6.4068353  50.4959679
   5.1530367   7.7174866  50.7234859  86.1298035  27.4225664  82.9194355
  85.5108546  28.0405951  82.5306320  86.5665148  27.0175600  82.1701145
 106.6962485  15.6750453  36.0121131 106.3560478  16.4927888  36.3751435
 107.2769438  15.9510720  35.3030062  16.0680068   4.4983116  39.5948076
  16.7342126   3.8881627  39.9112225  15.4668641   4.6003333  40.3326750
   8.4964311  53.2372999  87.2899055   8.4410465  53.8004684  88.0619240
   7.6180714  52.8677893  87.1994781  12.5166702  14.2588496  45.9855986
  11.8573177  14.9366486  46.1341715  13.1699038  14.6787405  45.4259443
   1.8357603  80.5130577  87.4908638   2.1846689  81.3802052  87.2845840
   2.2088864  80.3021336  88.3467388  28.4554768  36.2914205  68.0852270
  28.6982894  36.0761356  68.9857435  28.7461495  37.1959186  67.9685020
   1.5411830   5.4352862  45.1550245   2.1302405   6.1861849  45.0815821
   0.7763755   5.6789345  44.6335506   5.7134569  72.0736980  55.3785133
   5.9857821  72.2585249  56.2773514   4.9703923  72.6581240  55.2284050
  91.4185308  25.3292394  65.6213284  90.6204437  25.1409793  65.1275206
  91.7254780  26.1653662  65.2707529   1.6799374   1.6273993  57.4285412
   2.4318010   2.1021071  57.0741606   1.4586578   2.0957994  58.2334423
  93.2285093  42.8119421  80.9393120  94.0996288  43.0086327  80.5947971
  92.7705882  42.3955059  80.2091694   5.9357351  63.0198574  92.0999622
   6.8636382  63.0262566  91.8650341   5.6497407  63.9241648  91.9708443
  16.3334477  37.0651627  89.9501133  15.6204581  37.5295091  90.3885841
  17.1277392  37.3923111  90.3723717   4.1678447  41.1486721  92.2997475
   5.1086503  40.9987688  92.3927307   3.7739372  40.2858686  92.4287415
   1.6290283   7.6939160  36.2800384   2.4397546   7.6629549  35.7721043
   1.3686122   8.6147845  36.2596083  20.5594039  67.5668955  70.6177568
  20.2596354  67.8445721  69.7521591  21.2684011  68.1733704  70.8316326
  98.4517429 101.5599514  52.7225828  97.7279565 101.2327165  52.1884632
  98.7790606 100.7866490  53.1820393  99.0988491  35.5508137  54.3010998
  99.5302056  34.7040248  54.1865921  98.6106335  35.6827545  53.4884071
  95.2355538  12.7700293  54.9791670  94.5560013  13.1824362  54.4459152
  95.1760898  13.2115781  55.8263588  80.6596921   9.4194424  40.5702305
  80.1909731  10.0961506  40.0817633  81.1570524   8.9445364  39.9044013
  18.2436585  46.1855125  33.5517287  17.4617136  45.6347609  33.5900402
  18.8032234  45.8562517  34.2550826  23.3605552  23.7712049  64.0070057
  22.6277113  24.3460917  63.7863731  24.0363288  24.3616748  64.3400335
  28.8028646  69.7099144   0.7849896  29.1855944  69.1618128   1.4700710
  28.0389900  69.2180879   0.4835999   2.3164913  21.4776087  30.2879906
   2.9265165  21.2237048  29.5954347   1.6148353  20.8283687  30.2390075
  86.0614131   2.0119576  30.4559612  85.4621409   2.6423365  30.8556199
  86.1796878   1.3369904  31.1242890  40.6011967  83.1647880   7.4971497
  39.8030334  83.4929354   7.0830452  40.7952098  82.3510225   7.0319950
  94.3607841  75.9552479  58.5471392  95.1801656  76.3857555  58.3031988
  94.3634878  75.9599400  59.5043230  10.9363723  24.9551296  48.9577770
  11.3445354  25.6591821  49.4617081  10.0663006  24.8570752  49.3445492
  11.8265319  41.2617636  81.4956570  11.2500513  41.4208126  82.2430611
  12.6486504  40.9652901  81.8861198  17.7410281  27.5416517  38.7117553
  18.4669280  28.1392455  38.5323596  18.1532884  26.7791009  39.1177011
  22.0419812  48.0216551  56.2948704  21.1874747  47.6685286  56.0471725
  22.4783444  48.1994009  55.4616642  52.0110915  93.8878215  37.5283670
  51.3337443  93.3278037  37.1491385  52.4995205  93.3096362  38.1143451
  23.4953666  38.6668706  68.0388498  23.3080673  38.6820006  67.1002722
  23.2810283  39.5497799  68.3401155 111.1166453  44.4585896  86.0711002
 111.7681174  43.8460684  85.7295895 110.8160338  44.9421597  85.3016758
  23.4693956  43.0442572  31.5191722  23.4106565  43.9971876  31.5877700
  23.3204699  42.7302885  32.4110675 110.1854877  36.0832834  69.3168879
 109.5088826  36.4993143  68.7827015 110.6385423  36.8125319  69.7401714
  31.2495017  19.0444219  76.7494345  31.9317961  18.7735105  76.1351776
  30.4901338  19.2303991  76.1971664   9.1389769  51.4964771  20.8715773
   9.0229833  50.8254147  21.5442252   9.1976082  52.3175812  21.3600206
  98.5578416  55.0998402  52.3666477  97.6476644  55.0627041  52.0726585
  98.9571200  55.7801151  51.8243980  16.9419479  51.1110258  33.6795497
  16.4654183  50.7173109  32.9487014  17.3980594  50.3770638  34.0912414
  23.9302540  67.1451998  68.6075974  23.6181521  67.1268940  69.5123005
  23.3711529  66.5183210  68.1486225   8.7211698  59.1074848  80.8561611
   9.6214485  59.3952656  81.0075188   8.5999948  58.3732605  81.4582062
  14.9392450  18.9970696  74.6277905  14.3371367  18.2722294  74.4595528
  14.4068992  19.7834563  74.5076418  16.8149912  19.0192187  37.7606750
  16.3190413  18.8304341  38.5573101  17.6285005  19.4151700  38.0731773
   3.2816088  37.8247285  72.7416134   2.6356018  37.4041533  73.3090830
   2.9305995  37.7163720  71.8577099 101.3442968  21.4478779  62.6840258
 100.9610365  22.2524595  62.3347521 102.2629832  21.6676950  62.8387070
  85.1098762  91.3224459  36.0671806  84.4880334  91.5970588  36.7410731
  85.7666025  92.0185948  36.0492969  78.1320904  40.2738285  71.5559769
  77.4408482  40.0937271  72.1931458  77.8291176  41.0515022  71.0872984
  97.5447653  39.0783119  51.7320061  97.3689853  39.4662952  50.8748007
  96.7336534  39.2065477  52.2238255   0.4263703  50.5883598  69.5570803
  -0.3722319  50.5618811  70.0841188   0.2551782  51.2594891  68.8963938
   7.3251253  17.4282432  79.1169834   7.7523381  18.0265760  79.7299433
   6.9793802  16.7266607  79.6687746   0.3255473  17.5186551  73.0817699
   0.3134304  18.4384501  72.8170776   0.9499560  17.1059251  72.4851131
  48.3313430  73.1786699  10.0516426  48.5187484  72.3820372  10.5481159
  48.4947217  73.8905008  10.6703770  29.1937065  54.5675898  69.6307278
  29.2162704  55.2415276  70.3100920  29.9689412  54.0319109  69.7989178
  31.1016393  42.5654316  78.9304209  31.1720634  43.5185766  78.9832592
  30.2572966  42.3648977  79.3342829  54.7805918  44.7075189   5.5826866
  55.3152788  44.9718202   6.3313400  54.9900556  43.7825073   5.4534161
 101.3685797  30.7726622  76.1969376 102.1737252  31.1298776  76.5715981
 100.6908129  31.4032388  76.4403248  22.4895501  60.7534409  73.4612942
  21.9592714  60.5400991  74.2290974  23.2838702  60.2296257  73.5657454
  23.1221652  23.3727193  25.6649494  22.5505328  22.6834965  25.3266644
  23.4630609  23.0193305  26.4866185  77.7015758  71.6518588  15.4132759
  77.1597672  71.7091579  14.6262657  77.1029592  71.3452466  16.0943710
  81.2321708  98.7583447  45.9845352  81.9405375  98.3222259  46.4580822
  80.6835244  98.0431653  45.6624556  45.0576398 106.0338752  77.4290943
  45.9640906 105.7792390  77.2566414  45.1109622 106.6051288  78.1952906
  26.2674356   7.7478969  55.6716442  26.7740440   7.4984437  54.8987579
  25.5726695   8.3113688  55.3310061  13.3954954  23.8072276  75.0689030
  14.1210091  24.2986965  74.6837759  12.6121533  24.2888546  74.8031139
  22.3561597  33.9774609  80.1292324  22.0881319  34.2414021  79.2490530
  22.9640555  34.6615767  80.4097366  67.9551778 100.8584732  83.5768986
  67.3533729 100.1165242  83.6366844  67.8277866 101.1994649  82.6916122
  77.2257017  42.7174950  69.9904299  77.6887105  42.5043583  69.1802311
  77.0515464  43.6565685  69.9268341  20.9099960  12.0004928  14.9181604
  20.3257036  11.2553418  14.7782040  20.5073166  12.4890745  15.6360531
   3.9902562  13.7285697  42.2561264   3.7850881  13.0472159  42.8963566
   4.7407711  13.3841741  41.7720270  80.2448986  26.3801479  57.2030449
  80.3171800  26.8797898  56.3898039  80.6280898  25.5279231  56.9954205
  16.1948597  43.5600758  65.9741545  15.4226959  43.1355953  66.3480711
  16.8499267  42.8639746  65.9235477   1.2053663  47.3837185  82.3480892
   1.4363606  47.1596193  83.2495689   2.0444129  47.4264002  81.8893909
 108.8849799   8.9138669  50.6971931 108.3376242   9.0609324  49.9258280
 109.6946685   8.5407645  50.3487253  17.8286695  76.1884451  69.5811701
  16.9667137  76.2400055  69.9942160  17.8216565  75.3519583  69.1159058
  15.5722189  40.1180220  77.5427818  15.1323533  40.8213425  78.0203724
  16.0085905  40.5596781  76.8142509  91.1498450  18.3946621  77.0286274
  91.2501501  17.8696859  77.8227139  90.2726053  18.7710273  77.0995426
  16.3858640  48.2137346  62.9101753  17.0102644  48.5141897  63.5705423
  16.7803669  47.4186850  62.5517178  61.8435407  85.8316453  17.6276886
  62.1014548  85.7109315  16.7138302  62.6305557  85.6180222  18.1288922
   6.0002458   0.8949799  78.9708662   5.8288842   0.4829733  78.1240368
   5.4788244   0.3884230  79.5935631 102.4532615   6.4192069  63.5039663
 102.7822803   7.1511400  64.0257454 103.2189725   5.8624554  63.3627415
  27.9404623  70.7149155   9.9789345  27.9696596  70.2233262   9.1581356
  28.8436670  70.9984584  10.1205647  89.4957671  86.1622573  83.0470371
  90.4042587  86.4636350  83.0537701  89.3533740  85.8507395  82.1532249
  54.8774458 100.6421263   5.6557476  54.0077890 100.8369954   6.0049736
  55.1409305 101.4455636   5.2070820  41.4848373  61.4699818  36.9680798
  42.2770337  60.9596403  36.8001282  41.1248345  61.0957546  37.7721798
  42.0301867  48.6464310  88.1385231  41.1912918  48.2970238  88.4391785
  41.8100691  49.1653681  87.3649025 103.8067637  62.3104334  85.8428860
 104.2794894  62.3286724  86.6750145 103.1341813  62.9852962  85.9346771
  10.7029641  36.7553449  51.9359589  11.5496635  36.8901515  52.3615837
  10.5135584  35.8264518  52.0683050  11.3770532 105.6118410  62.0340824
  11.1714553 106.5437890  62.1078014  12.0011186 105.4475904  62.7410412
  11.3322294  27.5166202  88.6975479  12.1435297  27.8264022  88.2949829
  11.2204826  28.0719209  89.4691658  63.0454478  90.3283680  76.3964701
  63.5612223  90.8514488  75.7827950  62.1828697  90.7433200  76.3987827
 108.8738190  18.3814156  74.0517712 108.6284979  19.2363393  74.4055414
 109.8264252  18.3500767  74.1400385  10.6748915  22.6513982  75.8163691
  11.2063682  23.3760047  76.1460829  10.7852733  21.9580126  76.4669561
  97.2576687 105.1705962  47.9116344  98.0785606 105.3278380  48.3781576
  96.5959284 105.1206412  48.6014414  96.0958718  14.7735524  46.9850492
  95.3091215  14.3131363  46.6930294  96.8205534  14.2522585  46.6396189
  35.3718996  57.2523928  85.8994293  36.0072732  56.5491962  85.7650948
  34.8269129  57.2362852  85.1126862  91.3790069 101.0434187  69.3556499
  91.2039743 101.7100728  70.0198555  91.9744990 100.4287381  69.7843599
 106.1369745  17.3398316  80.5945778 106.5643428  16.5387702  80.2914524
 105.3380667  17.3980975  80.0705719   8.5030907  37.3801565  89.9062634
   7.9776257  37.3638582  90.7061672   9.3856782  37.1476054  90.1946926
  36.0571551  51.6127872  49.8321199  35.1798558  51.8139648  50.1578569
  36.2194705  50.7145214  50.1202250  34.0715019  56.4608316  22.2219956
  35.0003231  56.5642278  22.0150387  34.0221081  55.6286017  22.6923000
   4.5357433  78.4400129  86.3024998   4.9479410  79.3038988  86.2974834
   3.7258643  78.5581732  85.8061409  82.2969422  90.6062556  67.6534605
  82.2877858  91.0126198  68.5200739  81.7249481  89.8437012  67.7404404
  82.4876307  10.9741688  78.6565876  83.1471585  10.8339024  77.9771900
  82.8850721  11.6134274  79.2478752  26.3632941  18.7120712  41.0670567
  25.4724312  18.8370287  40.7399797  26.6446638  17.8811300  40.6841755
  36.8370509  50.0752926  69.3954802  37.0260286  49.5534420  68.6156130
  36.6277647  50.9456015  69.0563726  99.7063396  99.2227245  53.2701349
 100.4223297  99.2087889  52.6350021 100.0137541  98.6714584  53.9897442
 112.0109983  39.8361564  44.3820095 112.1872055  40.7439470  44.1348314
 112.1919540  39.8042655  45.3214073  83.6625741  19.4140244  86.0537529
  82.8818463  19.8519194  86.3927841  83.3415483  18.5760748  85.7205677
   5.9563118  81.4117050  62.6741838   6.2980580  80.5501938  62.9134464
   6.1660981  81.9691467  63.4235048  26.9868469  72.7121878  47.7133179
  27.8157616  73.0130339  48.0856419  27.0056033  71.7615843  47.8239107
   1.4958522  13.4297454  67.5212717   1.7845902  12.5482035  67.7573776
   0.8250059  13.6437440  68.1696558 108.5039641  23.7295389  85.2924919
 109.3119495  23.2223225  85.2142429 107.8344314  23.1772590  84.8888206
  15.2591598  41.0899448  83.3717823  14.9432445  40.7056332  84.1895485
  15.9053314  41.7403984  83.6467457 103.3602314  33.3999681  46.2132645
 102.7354656  34.1119671  46.0755920 104.2112933  33.8349056  46.2657309
  17.4436045  35.6375217  79.7065830  16.9368052  36.0625768  80.3984737
  17.4170959  36.2555575  78.9761305  40.0049400  27.8748846  26.5513015
  39.3233776  28.5448527  26.4979267  39.7023940  27.1784735  25.9684539
 106.1063240  50.4802704  74.8399305 105.3153942  50.4686117  74.3009281
 106.2036197  51.3955402  75.1027012  21.6376209  68.0559826  29.7261500
  22.2529840  68.6102629  30.2060771  21.4234591  67.3510313  30.3372216
  73.1471873  54.8783727  15.2560532  74.0132643  54.4911426  15.1287949
  72.9605461  54.7474651  16.1857044   8.1232262  25.0137186  52.2742558
   8.8806581  25.5482221  52.5126553   8.2483643  24.8220038  51.3448381
   2.0007148  47.4853468  85.0944614   1.5363611  48.1214523  85.6385040
   1.9069281  46.6558647  85.5628586  33.5773563  32.3040748  38.1282449
  34.1923070  33.0032992  38.3499479  33.0861878  32.6451540  37.3808146
  10.7488608  33.2796431  85.4603100  10.7112241  33.8114429  84.6653175
  11.4122260  33.7062740  86.0026741   4.0309581  31.0406828  72.4379158
   4.5296514  30.5187798  73.0665302   3.4263504  30.4173160  72.0353079
  86.8347190  28.0301309  63.3807278  86.6312598  28.4588194  64.2120314
  86.2565564  28.4526443  62.7455568  11.6823173  99.9039824   6.4549362
  12.3648024 100.5438359   6.2523472  11.5011431  99.4742711   5.6190216
  44.9998571   2.3867256   5.3243839  45.6548144   2.7001507   4.7006714
  44.4417979   1.8017179   4.8119747  25.8659816  39.7885013  55.8481455
  26.7441154  39.5988917  56.1785412  25.4369760  38.9339590  55.8040619
  16.8559527  44.8779249  80.0014400  17.5466681  45.4956865  79.7616100
  16.3168764  45.3545904  80.6326389  11.4003587  44.4884777  64.9754143
  12.3574352  44.5033503  64.9793053  11.1643672  44.0465164  65.7910156
  91.1984657  23.0053735  91.7797279  90.3719352  23.4500408  91.5917110
  91.1376952  22.7680850  92.7050591  11.1557007  40.0399065  63.1724596
  10.8160412  39.8740506  64.0518665  10.8693135  40.9303284  62.9690838
  12.4412036  44.5983553  84.3392754  11.9203043  45.3383827  84.0274143
  13.2423007  44.6321249  83.8164616  61.6898681 102.1938927  -0.0717056
  61.8381024 101.3742859   0.3999912  60.7629038 102.3868353   0.0688183
  23.7266255  70.1506288  24.8963272  22.7875985  70.1909156  25.0775444
  23.9036716  70.9333677  24.3746006   4.8508272  61.7428923  75.2762938
   4.4871202  61.0401773  74.7376442   5.2907217  61.2899828  75.9957409
  31.7110372  38.9640641  75.6732893  32.6311469  39.0036464  75.4123926
  31.4028573  38.1223512  75.3374672  95.1372240   1.4469482  75.9889221
  94.7682606   0.9644902  76.7287445  94.3853746   1.6363938  75.4276180
  85.7021950  11.3259196  60.3498077  86.0741828  10.6604540  60.9286118
  84.8743246  10.9487557  60.0521374 110.9541175  42.9384565  22.7896380
 110.1451363  43.2603359  22.3919296 110.9109858  41.9880152  22.6845956
  97.4060009  68.4176064  60.7782555  96.4907561  68.5935974  60.5601168
  97.5867842  67.5648832  60.3827715  47.3634882  88.9155800   1.1281979
  46.7868025  89.5707304   1.5211880  47.2139783  88.1239612   1.6451275
  51.7838380 103.3993462  65.6100988  52.1365044 103.1908075  64.7450161
  50.9650443 102.9060969  65.6602240  87.1547459  13.0692899  53.1866550
  86.7721699  13.4520745  53.9761734  87.7157257  12.3642814  53.5099173
  41.0414791  11.7105210  28.7858677  41.9128466  11.4229012  29.0583253
  41.0939693  12.6662803  28.7854981  -0.1398696  40.4758453  74.2134428
   0.8017472  40.3763628  74.3537712  -0.3311221  41.3699007  74.4968510
   4.4814616  11.5741801  80.3834820   5.2740830  11.5989089  80.9195614
   4.7935423  11.7063046  79.4882870  31.1483097  38.0852079  36.8913507
  31.1753845  37.1538806  37.1107292  31.4874887  38.1306624  35.9974146
  24.2108583   5.9460598  39.9019647  23.4101057   6.2894511  40.2983332
  24.6109724   5.4158741  40.5911970 112.9802372  36.3272810  27.2861218
 112.4734763  35.6687856  27.7613163 112.9675067  37.0963669  27.8558373
  89.7905825  19.5471191  86.4518929  89.0767620  19.0226591  86.0890770
  90.1653121  18.9978766  87.1404743  99.8893045  87.2917938  51.9716835
 100.2227591  87.1441555  51.0866737  99.0256427  87.6829433  51.8400669
  26.9641876  12.0381200  70.4303074  27.6918769  12.3119378  70.9886312
  26.6773748  11.2041807  70.8024883  51.9148207  42.5277090  52.9490185
  52.2865629  41.9187975  52.3108482  52.5398397  42.5259924  53.6739874
   9.7174507  33.4044003  79.0807247   9.7912544  33.9318919  78.2854033
   9.1939873  32.6472282  78.8182211  10.1704705  65.3548908  60.1660109
  10.2591574  65.2069092  59.2244864  10.7391572  66.1036539  60.3453922
  41.5247191 106.3077528   1.1306202  42.3431424 106.7988760   1.2028229
  41.4993099 105.7672055   1.9201767   0.3376027  41.2632322  57.4314356
   0.8708589  40.7860661  56.7956877   0.8224124  42.0730257  57.5909042
  16.7633712   6.0849398  54.6635723  17.0915210   5.3495777  54.1460848
  16.2991905   6.6341537  54.0318060  26.1330819  34.5233297  64.2467070
  25.2434349  34.2573810  64.0142632  26.0844088  35.4756856  64.3296766
   6.4885890  27.0667839  54.8930311   7.0521080  27.1783137  55.6586933
   5.6552505  27.4618268  55.1493835  12.5774932  42.5606155  91.3218212
  12.3350489  43.2648706  90.7205868  13.4853292  42.7499962  91.5588856
  12.4028242  12.2181582  55.2432823  13.2907224  12.5464606  55.1015615
  12.4806201  11.6355646  55.9987736  91.3074468  27.5442410  75.0467014
  90.7762192  28.1603456  74.5422745  91.9994234  28.0829215  75.4304028
 113.0349581  36.8069124  76.2014818 112.7867665  37.7311182  76.2233448
 113.2161165  36.5858865  77.1150255  23.6982059  30.8375144  25.1065183
  23.3552051  30.1050520  24.5945787  24.1610050  30.4243255  25.8354402
  41.0353708  17.4962080  64.3424749  41.1932516  18.4171093  64.5504332
  40.9869337  17.0631075  65.1947117  92.0515679  15.1689851  82.2781944
  91.8940853  14.2299080  82.3760033  92.6348923  15.2365661  81.5222931
  10.0463700   0.5093980  45.0339413  10.2175033   0.3138888  44.1126823
  10.9040809   0.4501002  45.4547119 110.8559746  16.8901730  67.8781128
 110.3441225  16.5550327  68.6142635 111.7504729  16.9463229  68.2141972
 100.8507465  56.2367725  36.7188358 101.2554286  55.4461241  36.3619924
 101.5158950  56.9164133  36.6097593  30.1451874  60.1255417  33.2747579
  30.4470396  59.9940681  34.1735506  30.5300999  60.9618568  33.0127454
  19.6179819  22.2633481  62.3364544  18.9098811  21.6312170  62.2130251
  19.3587577  23.0192828  61.8095779 112.3338569  31.2269568  47.0342493
 111.4472215  30.9390092  46.8170023 112.8633976  30.9592938  46.2831306
  52.6319742  23.1668973  83.1673050  51.9166851  23.7535834  83.4130573
  53.4164810  23.5828948  83.5246944 103.9961574  98.8531620  59.8301792
 103.1835101  99.2457116  60.1491547 104.5204542  99.5965499  59.5323229
  21.2409782  11.0109818  70.1495028  21.6403103  10.6902432  70.9581423
  21.4667249  10.3519011  69.4930887  61.4334068 103.3777023  59.2067099
  61.9990084 104.0260932  59.6261311  62.0256231 102.8608776  58.6604452
 106.0759590 102.5819472  59.4991827 105.5992291 102.1149618  58.8129711
 105.4674504 102.6090691  60.2375698  99.6350943  51.1175680  36.3493800
 100.0600909  51.9746685  36.3809323  99.7665678  50.8180094  35.4498196
  24.6318316  55.5797625  76.5635633  25.5390859  55.2946997  76.6724634
  24.6967530  56.4110231  76.0934258   6.0603333  54.0343380  72.3070574
   6.3011503  54.8769045  71.9219398   5.8599740  54.2371607  73.2208157
   4.8180151  32.3048043  60.1926041   5.0842488  31.8597484  60.9971380
   5.6275928  32.3957920  59.6900749   1.8399014  38.9274001  56.7090511
   1.4534131  38.0832338  56.9419527   2.6016337  39.0085816  57.2829914
   9.7560191   9.6667445  28.3101320  10.4206038  10.0550592  27.7411246
   8.9359999   9.7733021  27.8280067  30.5747962  13.7254882  63.2353592
  31.2554264  13.0729759  63.0704308  29.7685719  13.2157111  63.3151293
  13.3426619  13.4774148  48.8672686  13.0503726  13.7487650  47.9971170
  14.0889776  14.0458572  49.0573168   2.4560970  26.4884400  88.2618141
   3.3667850  26.2297297  88.1205750   2.4891587  27.4406052  88.3541012
 103.0054103  50.0863504  51.1651516 103.3944009  49.4436455  51.7583179
 102.3519622  50.5393982  51.6980505  10.6800961  37.5248671  83.9751148
  11.4453626  37.8487635  84.4501877   9.9833220  38.1440210  84.1928005
  99.2682146  22.0508337  46.3417912  99.5198165  21.1287856  46.2892771
  99.0810965  22.1955895  47.2692966 105.1591365  12.6210511  65.6933641
 105.0084190  13.4014940  66.2266779 105.6037395  12.9476833  64.9111462
  98.3930971   0.8044464  49.6463120  98.6746933   0.1408417  50.2760422
  97.5954844   0.4438812  49.2589581 110.7776187  99.6740306  73.3779669
 111.5059135 100.0331796  72.8711796 111.1946580  99.2411233  74.1228819
  16.9603121  54.7765446  69.7788811  16.8745279  54.6595955  68.8327312
  16.1954939  55.2962255  70.0262976  15.1668704  62.8266287  83.4646416
  16.0846400  63.0392551  83.6341190  14.6809208  63.5817909  83.7960243
  10.0218713  11.3375247  70.2394104   9.6430755  12.0628929  70.7359838
  10.5667877  10.8717740  70.8737421  40.2357149  48.5330534  59.6876049
  40.8700848  49.2444420  59.7755480  40.0339556  48.5063219  58.7522936
 101.1692344  19.2232263  74.9033117 101.7072628  18.8633394  75.6084585
 100.2739583  19.1800392  75.2392387   2.5675336  28.5286093  77.2604704
   1.8574150  28.3780456  76.6365337   2.1539362  28.4425759  78.1194019
 112.7630714  30.7980037  64.5899153 112.1738417  31.5501022  64.5317125
 113.3552657  31.0128999  65.3105783  26.8708873  22.1602535  83.4030247
  27.7040148  21.9277287  83.8129807  26.6879416  21.4358449  82.8046989
  49.7594775  44.8527939  19.2229378  49.4038416  45.4490240  19.8819267
  49.3302942  45.1130987  18.4079086 110.3440656  29.8376346  79.5214510
 109.6478568  30.2537274  79.0131330 110.3920902  30.3516841  80.3274727
   6.7447639  58.2596159  61.4705801   6.2155199  58.1872702  62.2648716
   6.9594693  57.3550892  61.2426138  29.5292401  29.9334598  41.0629845
  29.8066425  30.7168579  41.5379190  29.9913263  29.2151761  41.4951611
  31.4541364  16.0050046  44.1789818  32.0743418  16.2990749  44.8461390
  31.9001031  15.2806580  43.7400436  25.0294042  84.3468030  13.4725964
  24.2299116  84.8626287  13.5773289  25.2743936  84.1009505  14.3646538
  35.2925348  39.7442269  58.2342720  36.2284422  39.8771954  58.3846998
  34.8736048  40.0653648  59.0327692 104.4429944  58.3099508  46.5367317
 104.6587609  59.1675091  46.1702967 104.5519160  57.7025414  45.8050108
   3.2708958  60.3269958  16.1334348   3.5586238  60.8169556  16.9037497
   3.3827591  59.4084311  16.3782859  11.5798020  10.1937330  83.9763355
  10.6487525  10.0404203  83.8154888  11.9116545  10.5420315  83.1488132
  24.8503780  56.7657471  57.8125286  25.4321599  56.0058260  57.8292274
  23.9838266  56.4001179  57.6346731  15.7068503  86.4777756  32.2991061
  15.5703795  87.4209404  32.3888350  14.8470342  86.1332512  32.0577574
  97.9861365  21.8171406  75.3936005  98.3063649  22.4104071  76.0730982
  98.3915268  22.1356249  74.5870876  64.2855932   9.8681385   1.1331856
  63.8823654   9.7246773   0.2769959  63.6909582  10.4705936   1.5800488
  14.5831668  34.4771743  49.8707962  13.6453342  34.5312214  50.0545931
  14.6485913  34.5937729  48.9229822  98.1743930  57.4888229  66.9143248
  97.6619492  56.6917229  67.0494890  98.8360594  57.4683046  67.6057053
  23.1039119  54.9045086  68.5258245  23.4578347  55.6159353  69.0595341
  23.7030697  54.8422432  67.7819395  10.2139997  35.7787609  31.4832735
   9.7371954  36.0449362  32.2694302  10.1098645  36.5141797  30.8794975
  82.3978139  83.9338429   5.6614506  82.0518065  84.8262627   5.6517136
  81.6468573  83.3883317   5.8953488  42.8416252  43.3395386  64.3951321
  43.4519339  43.1600761  65.1103592  42.0840597  42.7850580  64.5818949
  25.0454807  52.8728437  29.7380328  25.8569384  53.3736467  29.8214769
  24.6976352  52.8302574  30.6287742  27.0865536  21.6388464  69.9745131
  26.9074464  20.7168150  69.7900963  26.2586117  22.0842862  69.7947121
  42.7462769   9.6847636  79.3021488  42.5781202  10.6036496  79.5109653
  41.9777870   9.2195314  79.6326208  11.7613700   9.3189508   5.9994137
  11.6089347   8.3756716   6.0560810  12.0501426   9.5680744   6.8773567
   9.2230034  45.3889990  37.7890325   8.9419711  44.9903536  36.9654226
   9.2968404  46.3224459  37.5903893  79.4249760  31.6395552  15.7484829
  80.2972917  31.2461645  15.7716953  79.3951742  32.2019369  16.5224850
   1.0185026  25.4731250  53.1997538   1.4603867  26.3207030  53.1489372
   1.7283750  24.8313284  53.1794786  18.2931042  77.4194956  63.7928486
  17.4115539  77.7739716  63.9087915  18.3529437  77.2276688  62.8569746
  10.9815121  70.4546833  80.6262112  11.2575638  70.0882339  81.4662933
  11.1707246  69.7648048  79.9902058  88.7116168  50.7084990  59.0445709
  87.7786063  50.7765055  58.8418341  89.0522836  50.0885916  58.3996725
  19.7843683  18.7043786  83.1971645  20.0821257  18.9927709  84.0599537
  20.4009080  18.0155528  82.9489136  26.4606643  41.8272400  68.3425379
  26.3229036  42.2406006  69.1948223  25.8452368  42.2709036  67.7588892
  83.6306144  94.4673092   3.5552323  83.5930825  94.9946244   2.7572548
  83.8784314  93.5934050   3.2533848   5.9149134  51.3765526  62.3748636
   6.7681736  51.7760563  62.5439024   5.7584983  50.8153868  63.1343746
  39.9679620 102.3086579  18.1297505  40.4836629 102.2767003  18.9355194
  39.9149915 103.2402022  17.9160702  38.2461309  62.9451752  30.0965333
  37.4264646  62.7982807  30.5685496  38.7867403  62.1855545  30.3132081
 108.6537920  70.0922251  68.5045624 109.4214092  69.9601316  69.0609312
 108.7689005  69.4703579  67.7860403  26.1088777  45.6003571  69.0923214
  26.4365983  45.8859968  68.2395411  26.8645835  45.6716776  69.6754646
 104.5693313  37.1105218  50.6890488 105.3142218  36.6068077  51.0171413
 103.8919561  36.4551640  50.5220127  16.1043406  78.1737089  68.2410002
  15.2303791  77.8758335  68.4933805  16.7009652  77.5925875  68.7127781
 100.4623057  17.6000435   6.1453163 100.5667736  17.8077633   5.2167809
 100.1284363  16.7030031   6.1539852  30.7212758  61.9536638  72.6266336
  30.7829404  61.7195797  71.7005491  30.9873939  61.1608505  73.0923128
 102.1326147  42.8201103  50.3982544 103.0301546  42.5979948  50.6458807
 101.6836666  42.9663992  51.2308884  39.3331289  37.4964285  38.7455535
  39.9997830  37.5603962  39.4294500  39.6016145  36.7434859  38.2190323
  96.5579806  50.7670927  65.5271387  96.3752066  50.2710819  64.7291422
  96.1023961  50.2858973  66.2178802 103.9306532  40.3085279  38.0819654
 103.5630350  40.2911472  37.1983433 104.8783086  40.3019667  37.9472923
  63.6913776  39.7076440  75.0322247  63.2594013  39.2570472  75.7578897
  63.0290604  39.7396564  74.3419027  34.2843366  55.5241871  54.9439049
  33.3479476  55.4043865  54.7856236  34.4819164  56.3840437  54.5726347
  25.4914618  46.0336924  76.6255951  25.5355239  46.6430807  77.3624372
  24.8160744  46.3980818  76.0534859  36.0722303  59.8416948  35.5473661
  36.5887451  59.0677452  35.7719684  36.5106773  60.2075958  34.7791767
  18.3159256  67.2044563  55.2831173  18.0448568  66.9647121  54.3969584
  17.4979675  67.2589827  55.7772827  24.6140099  34.9326873  90.1239204
  25.4354596  35.1313281  90.5733585  24.8532414  34.8832369  89.1984177
   3.3497390  49.7987604  86.6111279   3.3571371  50.3294420  85.8145428
   2.4275565  49.7603416  86.8647766  11.2691975  34.2792201  29.3885422
  11.6110063  35.0029373  28.8635325  10.8601964  34.7029948  30.1431060
 109.9737410  40.4503345  82.0226765 110.4736184  41.0467863  81.4653587
 110.6296502  39.8546147  82.3847961   7.5263321  50.2237177  78.1508160
   7.0305508  49.5651436  77.6642895   7.6300561  49.8479128  79.0250301
  44.5940590  95.6648731  40.9917545  44.6097231  94.7463226  40.7229519
  44.0449715  96.0966206  40.3372908 110.1541389  24.7803497  61.2210703
 109.2239337  24.9611902  61.3561487 110.6036787  25.5210495  61.6278934
  34.5393181  69.5408297  57.2695446  34.1207814  70.3312922  57.6104784
  35.4528475  69.7927380  57.1345091   3.6301881  68.5657787  70.1624632
   4.5517755  68.8216209  70.1243401   3.4406757  68.4917068  71.0977840
  13.1140506  59.3195772  30.8387709  13.5365438  58.4955549  30.5964518
  13.3658826  59.4584417  31.7517471   9.2450678  66.8341875  74.4099569
   9.7836643  66.2072277  74.8927259   9.5505977  66.7658091  73.5054064
  41.6838312  57.7531576  49.0498877  41.4112663  57.9679012  48.1577969
  41.4057398  56.8456078  49.1733837   1.1678261  85.8198452  49.5482922
   0.4749010  86.4787579  49.5044279   1.8906371  86.2617016  49.9938774
 102.3989604  80.2912045  51.1269855 101.5160464  80.5206394  51.4169168
 102.4269699  79.3357563  51.1775970  29.8367167 103.7382491   1.4105236
  29.4182856 104.1367085   0.6473839  29.2013086 103.8499100   2.1176445
  39.4086933  58.6605453  53.6076260  39.3684626  59.3962193  52.9965687
  39.5660782  57.8966284  53.0527449 110.8653119  66.4665651  49.1525936
 109.9572436  66.6808891  48.9387941 111.3773441  66.8632746  48.4478378
   4.0953484  34.8060942  79.5103693   4.8204508  35.1497030  80.0322819
   4.2025653  33.8556576  79.5478773  22.7270865  54.6321917  54.5277834
  23.2429743  54.1488552  55.1731348  22.3913550  53.9585543  53.9364004
  27.3411942  53.0412340  75.5006456  27.6341724  53.9346409  75.3211498
  28.0743122  52.4894428  75.2280712  51.4731384  76.0793622  10.8524143
  50.8577288  76.6396005  10.3795159  52.0041407  76.6875036  11.3666451
 108.4168057  27.6357555  44.8509073 108.2487498  27.0894694  44.0830755
 107.7272986  28.2993078  44.8283052  34.6304488  43.8201666  58.6310911
  35.2759981  43.7213802  57.9312754  34.0987873  44.5694447  58.3624887
  23.7718606  42.9236841  67.6253414  24.1011620  43.6745453  68.1193018
  23.1585813  42.4947309  68.2220984  34.0141988  83.0621433  62.3182821
  34.9662089  83.0190086  62.4079800  33.7167978  83.4866810  63.1229877
  25.5018044  57.0002317  39.0834379  25.1677132  56.5483952  38.3085465
  24.7397447  57.4542284  39.4431329  13.4819520  35.8573556  55.3219843
  13.3784616  34.9715257  55.6695843  14.2864132  36.1811900  55.7272053
  20.2161789  69.0458250  46.5044117  19.6909356  69.8419333  46.4233780
  19.7337306  68.3885098  46.0030031  32.9325318  25.8256412  58.6772394
  32.1100760  26.2389636  58.9398527  33.4421062  25.7712817  59.4857025
 105.4751979  48.3825064  64.2935038 106.1100249  48.7041140  64.9336529
 105.5820827  47.4313927  64.3072081  30.3349137  47.0768976  57.7522516
  31.0796070  47.1899509  58.3429146  30.4111052  47.7999496  57.1296549
  34.0234423  14.7886646  30.5766463  33.9688945  13.9439285  30.1297927
  34.8408771  14.7448516  31.0727429 112.5517686  82.1026516  44.8375511
 111.9060750  81.9831467  44.1411114 112.0985953  82.6284122  45.4966688
  40.9261513  52.7803946  36.7740631  40.4986095  51.9242477  36.7952394
  41.5253019  52.7674341  37.5204420  33.6097026  46.5343475  58.6796856
  33.2170367  47.3728800  58.9223862  33.9506769  46.6762066  57.7965975
  36.1019278  12.4928558  70.8449936  36.9966102  12.1940589  71.0077715
  36.2000918  13.4046471  70.5707073  33.9226103  88.3650970  63.8065720
  34.5062518  88.5125256  64.5507860  33.1458044  87.9566383  64.1886282
  77.4763823  93.4787543  10.6742775  77.2985960  93.2394202   9.7646916
  78.2771159  93.0029995  10.8949959  27.8977537  37.5718236  48.2659245
  28.0055642  36.9122243  47.5806952  28.0903554  38.4025502  47.8311491
  71.0344315  86.3725622   4.2343247  70.5981828  86.1439736   5.0551045
  71.0744286  87.3288901   4.2426026  35.1933122  38.6305594  66.3262272
  34.7574615  38.2818604  65.5486202  34.8669934  38.0906034  67.0460844
  94.5871721  95.1672363  88.3800697  94.9613582  95.8766079  88.9025688
  93.8066684  94.8987293  88.8647842  58.6809755  88.8014920  10.3975498
  59.1279150  87.9768498  10.5884564  57.7553023  88.6137588  10.5528366
  16.6554296  17.5277328  47.4468756  16.9650280  18.0953038  48.1527376
  17.4548972  17.1987045  47.0359898  94.9906801  12.1948206  59.2690277
  95.6667648  11.5172470  59.2751026  95.4420780  12.9808223  58.9613390
  35.7996707  96.0264475   0.0626003  35.9288534  96.5385325   0.8609211
  34.8596103  96.0828908  -0.1086700  12.8582561  71.2976074  58.5374451
  11.9324720  71.0967970  58.6746740  12.9240251  71.4980268  57.6037741
  33.7671351  44.3800497  69.9880838  33.6276245  44.1365480  69.0729475
  32.9554057  44.8167849  70.2461433  95.0848971  59.5811653  57.5713682
  95.7481597  59.2957544  56.9429922  94.2809354  59.6498299  57.0564270
  21.9307828  50.1476240  64.0667057  21.8249822  49.4800043  63.3889723
  21.0711908  50.2035427  64.4840908  51.5730381  47.9676247  86.9266510
  51.9142199  47.1565914  86.5497494  51.4775658  48.5576057  86.1789608
  23.9675808  69.6676683  50.3883314  23.3825493  69.0122032  50.0084066
  24.8474050  69.3352413  50.2104712  41.1061859  52.3800564  61.1345339
  41.7794371  52.3068666  61.8109941  40.9766960  53.3222771  61.0264397
  31.0275269  28.9577913  79.5758390  30.8663297  28.1487823  79.0902948
  31.1224079  28.6761713  80.4857445  42.7829170  57.5824070  52.4043512
  42.8864098  58.4926653  52.1269608  42.2485495  57.1822548  51.7183733
  22.1403503  33.8660860  90.0766182  21.6454053  34.6510696  90.3112698
  22.9957199  34.1957164  89.8010826  17.6560462  50.4945135  60.6957245
  16.9762444  50.0248623  60.2124739  17.1768785  51.0031414  61.3498831
 102.5203358  57.5188065  78.3315516 102.0616268  56.8592787  78.8519716
 102.4644051  58.3183002  78.8549185   8.6000341  37.0213223  59.7828054
   9.1098827  36.2181187  59.8884153   7.7218729  36.7890096  60.0846243
  14.5716572  54.5517826  63.2038641  14.7663248  55.0586319  63.9921761
  13.9244616  55.0781107  62.7344513 113.2637256  68.9883804  77.1649218
 112.8105050  69.0730619  76.3260794 113.6099159  68.0959845  77.1610928
  25.3922725  38.1352091  86.4925289  24.4772410  37.8801990  86.3745403
  25.8870769  37.4958992  85.9800053  13.0445719  18.5184383  36.5970564
  13.0310071  19.1003072  37.3569751  13.2646787  19.0901232  35.8615565
  16.9536185  79.8110437  51.4093113  17.7339566  79.2683554  51.5224361
  16.2429428  79.2893124  51.7820978   7.4181139  88.9873695  61.9157553
   7.3391438  89.6380138  62.6133680   7.0650744  88.1834507  62.2969484
  72.5841045  19.8585248  55.5489159  72.6057482  19.9950540  54.6017504
  72.3848820  20.7219648  55.9108734  29.5074344  25.0678992  55.1816130
  28.5566187  25.1779962  55.1737165  29.8429608  25.8520269  54.7471046
  50.5744601  58.4964598   3.9607536  50.9476758  58.1932093   3.1331169
  51.3233829  58.5551871   4.5539581  66.7751773  16.8617994  11.7663300
  65.9569146  17.3552734  11.7101109  67.4483051  17.5287754  11.9015228
  18.9601111  23.2635927  57.6710987  19.8036075  23.4328604  57.2514582
  18.4739292  22.7442408  57.0306826  52.6605749  56.0259342  65.5672312
  53.3757877  56.0214663  66.2033796  52.1670151  56.8212891  65.7673359
   9.5121312  24.1871881  65.2284002   8.8716078  24.5297909  64.6050310
   9.1566288  23.3395767  65.4956150  33.4466147  78.2856369  90.9052944
  33.9547157  79.0720177  91.1044693  33.9496994  77.8420019  90.2224159
  89.3880699  83.1026316  73.4168053  89.3481026  82.1836925  73.6817312
  89.4926367  83.5841513  74.2374372   3.4754679  36.1608171  68.1859112
   2.9042220  35.8247995  67.4952602   3.2576638  35.6335497  68.9545345
 108.1987356  51.5220642  64.0867710 108.5537909  51.9963121  64.8386097
 108.9477722  51.0457850  63.7285376  24.2273808  77.3650646  77.1899509
  24.2640615  77.8243303  78.0289745  23.5749698  77.8468275  76.6815233
  37.4927187  47.3991299  60.5086517  37.8152537  47.1090984  61.3619280
  36.5572977  47.1967506  60.5247641  11.0134840  47.0118332  84.2979527
  10.4439914  46.9464016  85.0645256  11.3135242  47.9207945  84.2993736
  20.7022738  80.7577705  82.5291824  21.0109949  80.5700111  81.6427994
  21.4816594  81.0605145  82.9951572   0.9957423  14.6144104  75.1118422
   1.7132711  15.1553667  74.7820711   0.6508115  14.1744661  74.3348598
  49.5701600  91.6080649  10.8942616  49.5132113  90.6862195  11.1456310
  49.5902325  92.0822008  11.7255413   7.9929686  24.5538950  67.9535723
   8.3663249  23.8736868  68.5140657   8.3223850  24.3504262  67.0781755
  42.0778341  91.3716133   5.0726998  42.5260408  91.6305716   5.8778584
  42.7756590  91.3050993   4.4209015   9.7126824  49.3411779  70.4903507
   9.7033322  48.8611174  69.6622849   8.9822412  49.9556923  70.4192019
   9.4829220  22.7048755  73.5183477  10.0735116  22.8204560  74.2627144
   8.6347693  23.0156469  73.8350391  22.9534698  90.1319885  63.7300539
  23.6802125  90.0981236  64.3520927  22.6668191  91.0451221  63.7461138
   9.5387059  46.7308617  81.8160439   9.1301668  47.5948620  81.7628193
  10.1768863  46.8109512  82.5249481  46.4402361  83.4409602  19.7764218
  46.5320510  84.3763335  19.5951092  45.5311007  83.2417448  19.5527756
  11.4781296  60.0328302  62.5987244  11.8073618  59.5356750  63.3475065
  10.7369661  59.5193052  62.2774744  12.8457987  29.5070767  26.9630718
  12.3506939  29.1963267  26.2050867  12.6130557  30.4325080  27.0381594
  10.7517469  62.2617054  83.2392979   9.8769784  62.0639563  82.9047775
  10.6056130  62.9227114  83.9160156 104.5799296  75.1431036  64.6417618
 103.8312463  74.9988317  64.0630627 104.8222618  74.2673635  64.9427366
  37.2570801  56.1861563  51.0687494  37.6189709  55.5171013  51.6498137
  37.9887962  56.7805529  50.9028912  29.1435194  39.0387225  83.3918190
  28.6915803  38.4119081  83.9566994  30.0719094  38.9104939  83.5864449
  94.3660437   7.3202664  69.4321871  95.2383064   7.0803297  69.7449493
  94.5252202   7.7796310  68.6076403  34.5549560  63.6856794  56.1203289
  34.9781752  62.8297806  56.1877823  34.1749001  63.6963844  55.2418804
  33.5873890  41.9539595  20.6685042  32.8817177  42.4431705  20.2455020
  34.3200397  42.0118761  20.0552344  11.1857164  57.3147440  77.3156834
  11.0645771  58.2619858  77.2501898  11.9765902  57.1386194  76.8060446
   2.6188472  18.9867866  79.8071623   2.2701332  18.7748849  80.6730366
   3.5460925  18.7549400  79.8590803  48.8864803  36.8134975  79.0466356
  48.7066698  36.2335682  79.7866249  49.2047453  37.6221561  79.4478989
  24.5111871  80.3102398  68.5516453  24.4925451  80.5720043  69.4721699
  23.7919092  79.6845198  68.4659576  40.6586933  56.1966610  25.0918722
  40.8073664  55.5483723  25.7802391  39.8329139  56.6165924  25.3326535
  36.6379762  54.7525454  63.2336760  35.9382200  54.0994406  63.2283783
  37.2806740  54.4200563  62.6070833  34.3757248  42.6109123  71.9143152
  33.6589050  42.2518539  72.4372673  33.9609146  43.2741690  71.3627195
   7.3756212  49.8808956  46.7752457   6.6360527  49.9480295  47.3792028
   7.0242518  50.1702929  45.9332132  23.0741620  55.6924248  37.5491619
  22.3350716  56.1830807  37.9086566  23.2466912  55.0098848  38.1977057
  67.0270203  43.7812328  87.0301342  67.3222588  44.6026421  86.6372490
  66.0941981  43.7369490  86.8201065  17.3806405  42.3312235  60.5870056
  17.7846646  43.1633043  60.3407621  17.3456991  42.3556519  61.5432549
   1.6763575  23.4162569  67.6164961   1.1471663  22.8530288  68.1812620
   1.2975717  23.3048439  66.7445230  20.6366754  63.7345695  87.0965099
  21.3013363  64.1055059  86.5161133  19.8286164  64.1876602  86.8557167
  63.4995546  12.3056156   2.2437298  64.1287257  12.0419628   2.9151928
  62.9154672  12.9185421   2.6902687   9.7916698  70.3257036  56.2357140
   9.4046068  71.1768436  56.4405918   9.2242628  69.9619150  55.5560541
  40.2795792  48.6729908  62.9601192  41.1864567  48.6820364  63.2662630
  40.3332376  48.3463717  62.0619678  32.6937813  97.0383961   3.2824146
  33.5442550  96.6477568   3.4832298  32.0566089  96.4328463   3.6612904
  61.9590759  68.2720232  90.6730652  62.8540945  68.1182861  90.3705215
  61.6484451  67.4100018  90.9499359  25.2173185  36.1194801  77.7493620
  25.4697919  35.6297398  76.9666481  25.6541634  36.9657898  77.6536465
  27.7835274  66.9890070  60.2180052  27.9335594  67.6212358  59.5151472
  28.3412147  67.2910595  60.9349298  42.2709227  76.3810873  24.2876768
  42.6704645  77.2363949  24.1294241  42.0344925  76.3950872  25.2151155
   5.0647652  60.6491995  43.5343409   4.8456663  61.5542507  43.3127308
   5.2277952  60.6662703  44.4774008  25.6489468  27.8919029  67.2242641
  26.2507582  28.1900024  66.5422153  25.8606410  28.4340930  67.9841614
 107.1331798  52.8828192  48.8390160 106.2406670  53.2066250  48.7173510
 107.0222591  51.9740629  49.1184521  37.7124405  58.7626505  70.9647655
  38.5432005  58.7492704  71.4400434  37.7298069  57.9691553  70.4296970
  13.3335459  80.3735828  52.0459127  12.6052141  80.9001350  52.3753262
  13.2166338  80.3708076  51.0958815  92.2608079   5.5475647  15.3926003
  92.8125455   6.3296635  15.3806793  91.4466538   5.8223564  14.9708473
   6.3254982  68.0971479  43.1352758   6.6597819  68.5016489  43.9358187
   5.4305518  68.4272766  43.0557919  50.8083416 104.1349919   5.2137673
  50.0080574 104.1378195   4.6886265  51.3916183 104.7468789   4.7647488
  78.7235785   1.0589313  45.7901955  79.3165542   1.7978382  45.9266663
  78.5348035   1.0734462  44.8519039  13.9094698  54.4691658  78.1534243
  14.8428261  54.2723036  78.2329512  13.4711838  53.6528730  78.3938456
  28.4591985  12.8751862  53.1204939  27.7403283  12.5597131  52.5728321
  29.1511822  12.2238147  53.0060196  37.2226381  36.3101435  34.2837501
  36.6401362  35.7541180  34.8012042  36.6746569  37.0482159  34.0169191
  61.6921713  20.6235344   5.7718193  61.7281760  21.5198404   6.1058342
  60.8926846  20.5957443   5.2461922 103.0336319  18.4428692  32.2812557
 102.4511503  19.0870595  31.8788052 102.8717159  18.5275745  33.2208514
  11.9914889  58.6747694  19.8693812  11.1404634  58.8671589  19.4757116
  12.3750126  59.5344639  20.0427890 112.5894801  46.7513895  76.1934185
 113.5150835  46.8085718  75.9563112 112.5904915  46.3749218  77.0734787
  17.8890038  42.2024918  80.9016132  17.8505468  42.2027397  79.9451876
  17.0742130  42.6244545  81.1741924  29.8373437  82.7819157  45.8042145
  30.0976586  82.0705223  45.2190733  29.1447520  83.2413292  45.3293610
  40.2680302  49.0470552  55.2153635  40.5297136  49.3421507  54.3431997
  39.8013115  49.7936773  55.5908108  39.1682816  29.6231627  85.2556992
  39.7849965  30.2905917  84.9549866  39.4797635  28.8114429  84.8552990
   4.5836818  57.8228521  36.7790890   4.8166242  56.9448042  36.4774156
   4.7096327  58.3810091  36.0117388  16.5563583  40.3611898  58.6672020
  16.5875852  40.9999466  59.3794155  15.6388998  40.3512573  58.3944321
  54.5761467  95.3850396   1.2358009  54.6865500  95.3073294   2.1834290
  53.7007881  95.0363667   1.0672581  19.6096277  45.7538414  58.4939146
  20.2585721  45.0592804  58.3812428  18.7770510  45.2908754  58.5872650
  30.3091860  44.4858360  59.9171448  30.3226376  45.3795099  60.2597809
  29.4523287  44.1442060  60.1727200 112.7116986  34.2053151  91.7739010
 113.1582990  34.1643119  90.9282684 112.6403429  35.1411438  91.9619465
  10.9234130  27.9350972  67.9284191  11.6904068  28.4421372  68.1946182
  11.1954880  27.4938393  67.1237469 100.6872450   4.1237101  58.9258957
 101.5306292   4.4817019  58.6488104 100.9127675   3.4414625  59.5582819
   9.2490709  27.8784561  64.2121458   9.3099797  28.0605721  63.2744074
   8.4546065  27.3523092  64.3028450   3.4950095  51.1354256  89.3572617
   3.1432679  50.4251385  88.8206005   3.5158300  51.8913126  88.7703800
   6.3053149  41.2914228  75.0920868   6.5407503  40.4864788  75.5534601
   6.3936806  41.9798803  75.7512188  40.0571394  56.3287163  92.1278000
  39.6577072  56.3525200  91.2582493  39.4834089  56.8702602  92.6698303
  15.3322709  37.8293562  56.5871763  15.0338185  38.5452533  57.1481133
  15.7642484  38.2649326  55.8523989  55.1579429 104.3886359  24.5819580
  55.4108644 105.2180655  24.9873078  55.4316319 103.7212594  25.2112019
  21.9243169  88.9864159  43.7895727  22.5556803  89.0104580  44.5086288
  22.4617481  88.9066696  43.0015135  23.6261797  62.6003265  66.7298603
  23.1357741  62.5041819  65.9134722  24.5074534  62.8499794  66.4519024
  16.5030181  38.6659670  44.2370892  16.7565060  39.5074272  43.8577223
  16.1595595  38.1638074  43.4981012  24.2182923  89.7534401  11.9259369
  23.6410142  89.4364984  11.2312901  23.6670924  89.7658069  12.7083981
 109.2026027  81.0050011  62.0529366 109.0971537  81.0375118  63.0037546
 109.0315916  81.9008064  61.7622232  48.5724211  23.4267282  80.8637142
  48.4247541  23.2599998  79.9327850  47.7548409  23.8196731  81.1693001
  34.0171576  40.2054262  81.7850590  33.9301610  41.0561132  81.3549423
  33.7420869  40.3643322  82.6880074   5.5329961  52.0050097  59.7384548
   5.6062865  51.8733835  60.6837273   4.6059763  52.1949244  59.5942402
  94.7912918  62.5849104  67.6264668  95.7015382  62.4468517  67.8884268
  94.3420468  62.8226185  68.4375811   8.2817209  39.9368358  47.9856920
   8.1264877  40.7908630  47.5822449   9.2238462  39.7956061  47.8924894
  32.7960968  55.3431225  47.5764370  32.2720647  55.7812643  46.9058752
  32.1673822  54.8062944  48.0589008  98.7756394  17.2445238  82.7651501
  99.6092795  16.8046856  82.5983620  98.9600478  17.8397524  83.4917355
  12.1370935  44.2357111  45.0052166  12.5929141  44.0854168  45.8333874
  12.7885914  44.0347767  44.3333435 100.7290660  34.0137982  81.4545345
 101.3810597  33.4439921  81.0465431 100.3449975  34.4993854  80.7245159
  17.6963091  33.8401198  66.1764479  16.7504752  33.7823725  66.3117075
  17.8668070  34.7763634  66.0734510  23.2926130  97.2125244  87.3989010
  22.8858900  97.2576332  86.5335846  23.7629223  98.0416489  87.4860096
  47.7467680  31.5323138  81.1546421  46.7908525  31.5736485  81.1273289
  47.9506969  30.6079650  81.0124397   4.6613529  48.2309389  42.9789591
   3.7864017  47.8697634  42.8366756   4.8131874  48.1277943  43.9183950
  18.5826302  74.1970921  32.5152588  17.6734626  74.1561937  32.8118610
  18.9638245  74.9219656  33.0107188  98.1430076  98.8861847  64.6659327
  97.5654076  98.4202766  64.0613317  98.5141502  98.1993771  65.2198124
  15.3313053  80.3656197  54.0835571  15.5645752  81.2937164  54.0621710
  14.7311044  80.2524662  53.3465433  17.9705632  53.8215733  81.0416698
  17.4448693  54.0135241  80.2651215  17.5245130  53.0831003  81.4563179
  44.6567106  47.7799606  77.2465134  44.5637989  46.8485832  77.0461798
  44.3083239  48.2268047  76.4750290  10.8403754 102.0048618  76.5554619
  11.4621961 101.2774086  76.5359402  10.1090634 101.6807938  77.0811892
  17.1147513  67.7593708  84.8976707  16.3405991  68.0024195  84.3898773
  16.8382061  66.9967270  85.4057312  72.7275713  25.2733070  15.9868347
  72.1597488  24.7368891  16.5400707  73.3178021  25.7095892  16.6012585
  23.6012721  69.9031639  87.9856873  22.7313709  69.5473385  88.1670570
  23.4536219  70.8390570  87.8495598  45.7742882  78.9533234  73.5745192
  46.5715408  78.6456156  73.1433105  45.8913183  78.7134314  74.4937515
  33.2052875  85.8066559  67.0293140  32.6925826  85.3391075  67.6886845
  34.0470243  85.9725857  67.4537849  43.7966108  76.1078119  67.9430532
  43.0064058  75.5676651  67.9358864  44.5172930  75.4782104  67.9218197
   1.5286429  95.9756184  64.3614626   1.6086586  95.3441334  63.6465788
   0.6337217  95.8626747  64.6817589   8.0060047 101.2724209  51.4734554
   7.4154574 101.6017056  52.1509886   7.4264479 101.0029030  50.7609177
  32.4291945  66.5049028  88.5949707  32.3364925  65.7449102  89.1694736
  31.5309525  66.7920303  88.4308052  64.3981218  98.1788063  60.4428577
  63.5377264  98.5026264  60.1762247  64.9889469  98.9167118  60.2923298
  40.0904369  91.9159889  76.2618208  40.9301186  91.6570568  76.6414499
  39.4496322  91.3453579  76.6860580  34.7089505  58.2075644  72.2244692
  34.5464349  59.1458750  72.1275282  34.2033005  57.9554796  72.9971266
  14.4886279  76.6988277  74.2749166  13.6998320  76.8144131  73.7451363
  14.9290335  75.9426737  73.8869667  66.6015100  94.6427536  70.4577732
  67.0656681  95.4577065  70.2663708  67.2954321  93.9946270  70.5787754
  17.1606839  71.9246674  16.6575038  17.6112187  72.0373774  15.8205163
  17.4286985  71.0565472  16.9587803  18.7279534  41.9591951  78.2828903
  18.7678206  42.0969534  77.3364925  19.6238828  41.7295170  78.5294437
  26.0512686  78.5861921  47.2825623  26.6046476  79.3000460  46.9656754
  25.5108643  78.3493662  46.5288305   7.7633917  43.7986898  32.5183582
   8.3885843  43.1702471  32.8795028   8.2841396  44.5835161  32.3477602
  45.6679106  58.0416870  53.5726213  45.6126833  58.4875441  52.7274036
  45.3651524  57.1513700  53.3939981  40.0848675  81.4958477  70.7778502
  41.0288143  81.3938522  70.6562138  39.7491050  81.6818810  69.9009848
  53.1812477  86.0057735  69.5457888  52.6096296  85.3242302  69.8993206
  53.8759565  86.0977173  70.1978302  31.5830541  67.7835989  64.0951872
  30.7728267  67.7092934  64.5994139  32.1324229  68.3743954  64.6103430
   7.2003150  45.1215172  56.6899061   6.4517587  44.5346022  56.5830040
   7.9120439  44.6905947  56.2166405  21.1423707  80.8434772  79.8442698
  21.1818862  79.9024916  79.6733475  21.2916183  81.2485600  78.9899445
  13.3857429  87.8355598  79.4418955  13.0452847  87.3627949  78.6824179
  13.2714987  88.7595940  79.2197752   8.2066110  34.6336538  10.0995934
   7.8871492  33.7714846   9.8334419   8.9531139  34.8005945   9.5241749
  81.4871748  41.6437704  25.4683602  81.9903191  41.1721594  26.1321842
  80.5733241  41.5050108  25.7170689  11.2568080  86.1581039  43.9848232
  12.0340729  85.7750797  44.3914938  11.2837553  85.8496857  43.0790758
   5.6021756  81.1060524  86.0593891   5.6253433  81.3324451  85.1296329
   6.5160155  81.1533642  86.3402653  60.7802105  81.0550690  90.8511639
  60.4146385  81.1807919  91.7268276  60.0173283  81.0383415  90.2732658
  11.4797413  32.0512152  59.6084929  11.8166173  32.4725151  58.8177633
  11.7324936  31.1325693  59.5166588  25.6630111  62.9986954  51.2758160
  25.5547881  63.5583925  52.0447493  25.0612831  62.2691727  51.4239788
  43.3021499  95.7859356   9.1836941  43.1198675  95.4472716   8.3071625
  43.4076650  96.7290814   9.0589058  21.2692714  77.6115942  78.7306118
  21.1419797  77.2308111  77.8616858  20.7289100  77.0737028  79.3093300
  45.9912634  74.7023201  67.5237560  46.3700199  74.1611910  66.8309689
  46.7345715  74.9326754  68.0811262  37.9245710  92.3482418  59.8693371
  37.8437114  92.2784996  58.9181137  38.8131237  92.6748562  60.0108767
  33.4443974  78.7041187  73.7761688  33.5798693  78.1619740  72.9990196
  34.1793489  78.4879827  74.3500662  43.9843702  63.9093924  27.1452641
  44.7766161  63.7889242  27.6687789  43.2698536  63.8781691  27.7814436
  14.2038941  44.2285490  64.2309618  14.2260265  43.6783361  63.4480143
  14.9547422  43.9383936  64.7489071  33.5390067  72.8808880  36.6563320
  33.3251023  72.0176315  37.0102501  32.8236079  73.4445047  36.9509077
  25.4483414  94.7824192  88.1652927  26.2615037  94.3080997  87.9920101
  25.7019639  95.7053185  88.1523323  37.5363135  58.7954283  62.1797132
  37.5194931  58.9909077  63.1165886  38.1445718  59.4366360  61.8121386
   6.8699384  63.3180094  51.4788580   6.7610097  62.7643585  50.7056618
   7.3815823  62.7834463  52.0860624  35.7238412  66.9504929  57.7479219
  35.0367475  66.2931204  57.8574419  35.2515292  67.7617073  57.5606108
  37.5395584  53.4867525  60.6710052  37.7604723  54.4156361  60.7389069
  37.5868154  53.2972002  59.7339535  21.6316605  80.4853153  68.5953665
  20.9906173  81.1956310  68.5681057  21.2242007  79.7757721  68.0986166
   3.7372047  70.0413275  36.9551730   4.2433316  69.2777586  37.2327113
   3.6634699  70.5792379  37.7434921  37.9727006  92.5584412  69.3388891
  37.9552412  92.9532433  70.2107000  37.9564023  91.6154861  69.5026112
  30.7835484  54.9241972  26.5306473  29.9286747  55.2957726  26.3130331
  31.4125586  55.5858707  26.2429523  42.2206259  79.1647243  54.2561769
  41.6292572  79.8190784  53.8842440  42.1246719  78.4028339  53.6847353
  17.5750446  45.8940697  62.4383640  18.2045984  45.9733915  63.1550264
  17.9396391  45.2126408  61.8736029  47.3530149  81.7378521  60.5441904
  47.3872232  81.1790562  59.7677851  46.5157270  82.1961880  60.4727077
  44.4343901  61.3558912  67.5533438  45.1447153  61.2145185  66.9274998
  44.6297598  60.7595253  68.2761240  16.3382101  88.8396835  73.6978149
  15.9824705  89.1652775  74.5246601  15.6461120  89.0051556  73.0576181
  23.9021969  72.0587873  54.6278811  23.7744665  71.4060402  53.9395189
  24.3539214  71.5850878  55.3262997  25.0875950  79.1018105  35.7465553
  25.8332920  79.0034151  35.1545358  25.1917505  79.9771881  36.1195087
  30.3530502  36.5088749  60.5729485  30.6562495  37.3647976  60.8757639
  31.1476731  36.0636282  60.2787304  73.3978916   0.1701354  62.9623604
  73.3687735  -0.6078911  63.5191965  74.0122438   0.7571887  63.4030056
  22.7699041  62.5604725  59.2594910  21.9424033  62.1501493  59.5107031
  23.1869388  61.9231892  58.6796761  60.6803514   6.8270952  20.6598484
  59.8840930   6.3832123  20.9516823  60.4096116   7.7336151  20.5143940
   9.9350017  79.4334602  23.2608080   9.3510318  78.8011217  22.8420496
  10.5549049  78.8965940  23.7544966  29.0516615  97.5375366  50.0897694
  28.2981777  97.3407841  49.5331907  29.2285538  98.4652996  49.9342346
  34.6527028  51.5338850  67.7476788  34.0598559  50.8041954  67.5679016
  35.0365734  51.7458248  66.8968201  11.3142109  72.2577381  41.5426397
  11.8082881  71.6360712  41.0081768  10.6050205  71.7378187  41.9207430
  12.7590191  64.9064827  65.6987429  12.2324669  65.6154251  65.3294516
  12.1285880  64.2095137  65.8804512   4.7457191  75.5995131  62.2620106
   4.2585909  76.1099911  61.6152048   4.9746424  76.2318850  62.9431391
  32.6915407  71.5696716  73.1014109  32.2611117  71.4924288  72.2499418
  32.3905110  70.8049917  73.5922098  33.6960435  54.6166420  72.2499800
  34.5744014  54.8835325  71.9788885  33.8445234  53.9417171  72.9122972
   7.7167332  65.0931501  86.2501621   7.4745411  64.8639870  85.3529072
   7.3471338  64.3905258  86.7848969  16.5325594  47.3524475  74.2262602
  16.4122379  48.2892418  74.3817282  16.1442709  47.2008467  73.3645868
  12.4299240  52.7518415  88.7030220  12.1972787  53.6556435  88.9157391
  12.4262214  52.7223969  87.7462864   4.6525252  58.9411163  53.0342913
   4.5083466  59.8873186  53.0223513   3.7775698  58.5667944  53.1371021
 109.5052324 100.4887676  70.5443430 109.9917085  99.7274494  70.8605099
 108.6904092 100.4777908  71.0465097  18.7688303  72.4600410  57.3943186
  18.7035191  71.9517469  58.2027769  19.4129729  71.9883966  56.8662453
 101.2435459  54.3066454  65.9655809 101.3956664  53.3750343  65.8068514
 100.3638349  54.4672585  65.6241941  29.8676753  90.5068493  64.2540407
  29.4847202  91.1382675  64.8630428  29.3189645  89.7273445  64.3407440
  52.5645876  33.9918184  83.2215595  53.4475422  33.7770486  83.5223961
  52.4653053  33.5050535  82.4033642  85.1614953   8.1384086  56.8156338
  84.7096778   8.4553813  57.5976944  86.0915280   8.2313251  57.0221281
  28.9423680  76.7975569  51.3295603  29.1878629  77.3344803  50.5761194
  29.7580051  76.3747883  51.5983295   8.3226097  34.5436382  27.2982383
   7.8665251  35.3850961  27.2852778   8.3460456  34.2981315  28.2231236
  18.0576718  67.6775885  71.4170122  19.0130794  67.7319002  71.3951540
  17.7635241  68.5795259  71.2896681  55.6348181  96.2318420  74.0999889
  56.1423159  95.4409599  74.2821169  55.1721239  96.4132118  74.9180698
  16.2049973  61.8039322  55.6687450  15.8006799  61.7248011  54.8047447
  16.8505514  61.0977364  55.6966782  37.8544092  39.5251203  56.6676855
  38.5382915  39.5394063  55.9981108  38.3271956  39.6166611  57.4949265
  42.9829073 101.9259071  60.1743460  43.8995838 101.7776966  59.9420214
  42.6281214 102.4282265  59.4408369   5.5741507  66.0997295  67.3947191
   5.6189907  67.0334864  67.6004457   4.6532601  65.9447289  67.1845579
  16.3238215  47.2519064  52.2114420  16.9615281  47.4111986  52.9072762
  15.9289432  46.4095497  52.4366856  16.6523457  71.6704655  64.1945934
  17.4055171  71.0922909  64.3157387  15.9385478  71.0844374  63.9430094
  13.6578584  26.4686203  43.9979172  13.5249925  27.3709655  43.7074852
  12.8080273  26.0476708  43.8682270  12.0238733  44.4354200  89.6394730
  12.2585130  45.3632355  89.6212673  11.9231820  44.1957092  88.7182617
  31.6667747  53.3500671  74.5099068  31.3805151  53.5186577  75.4076052
  31.7210340  54.2175341  74.1089106  13.8426554  78.9093351  56.5299940
  14.4880199  78.2122469  56.6474819  14.3481266  79.6495867  56.1941957
  31.6564369  78.9288473  69.0256786  32.4189687  78.5894632  68.5570717
  30.9095407  78.4932804  68.6149979   7.2085071  84.7953892  71.7315865
   7.0309913  83.8704109  71.5608931   6.5035844  85.0703430  72.3178625
  29.2918587  95.7670879  43.0371618  29.1216731  95.8395672  42.0980072
  30.0554323  96.3248062  43.1859493  24.6007609  74.1817999  62.8342485
  23.7023449  74.4832945  62.9690695  24.5085359  73.2697058  62.5589085
  80.2974130  69.9816175   2.6779663  80.8803702  69.3415840   3.0863297
  80.2893878  70.7206209   3.2862770  45.0267076  53.1309748  65.8003807
  44.6423531  53.9334774  65.4475403  45.9115076  53.1087971  65.4358673
  22.2378635  40.7577991  69.6535826  21.6647625  40.0219917  69.8689318
  21.9814181  41.4480925  70.2651024   6.3043094  64.0806961  40.1575994
   6.9911975  64.7469854  40.1357889   5.7130963  64.3688679  40.8530521
 111.9483489  65.4451656  82.3515511 111.2875251  66.0853767  82.0875931
 111.4640361  64.6245193  82.4421692  29.5252800  38.7533689  67.8375483
  30.0486398  39.5331645  67.6524878  28.8311005  39.0632987  68.4191751
  61.5912630   3.8653738  29.3466389  62.5053741   4.0972454  29.5105564
  61.1148419   4.2263109  30.0942909  48.7933493  66.4890337  62.6903439
  48.5426903  67.4039888  62.5628281  49.7459221  66.4863396  62.5964117
  29.7642016  85.8637142  88.7175179  29.7157598  85.0123024  89.1522217
  30.6972599  86.0772800  88.7123775  86.6406073  28.3592398   4.6075928
  87.2818340  27.7347071   4.2684471  87.1672703  29.0836412   4.9453842
 111.3415438  66.0579157  72.5632429 111.2154633  65.3242970  71.9614697
 111.9005141  66.6685390  72.0826960   8.8743722  67.9651737  48.1303120
   9.2341661  68.8269520  48.3403587   8.3268690  68.1155539  47.3596907
  14.2407656  87.2405243  68.4442711  13.9983439  87.3337841  69.3655586
  13.4065640  87.2499371  67.9749632  32.9244137  60.9061241  56.3711452
  32.5469637  61.7328310  56.6716814  33.8097739  61.1356544  56.0888577
   6.1033082  70.9715271  90.6232262   6.6446298  70.2014256  90.4495907
   6.6303533  71.7090321  90.3157520  56.6270460 100.6869538  22.4666512
  57.2657026 100.4774125  21.7851555  55.8183742 100.8708651  21.9886791
  14.2172444  48.9673328  79.6795559  14.0203476  48.0306149  79.6750927
  13.5268593  49.3546391  80.2176952  31.8016911  69.1707897  74.3109274
  32.2930527  68.3903456  74.5672560  31.1476231  68.8489962  73.6905432
  30.8809400  99.0898705  53.4489059  30.6869435  99.9567986  53.0924797
  30.1180434  98.5598087  53.2181120  10.2296996  67.4457550  66.4774036
  10.8322692  68.0864906  66.0997820   9.7715867  67.0744085  65.7234383
  19.9510825  27.7278733  26.8912268  19.5972121  28.5751033  26.6206527
  19.3846774  27.4506783  27.6113510  31.6828966  66.2154341  91.8338776
  32.1810079  67.0324469  91.8584442  32.1617031  65.6254053  92.4159813
 112.5417473  32.4338991   5.3031265 111.9506838  32.4394590   4.5502293
 112.6776315  31.5058405   5.4941094  25.7960081  92.3780155  75.6477118
  26.6472936  92.2307682  76.0598612  25.6794214  93.3277893  75.6715870
  21.6053748  98.1071091  68.4207201  22.3085642  97.8919792  69.0334797
  21.5951800  99.0638924  68.3941889  21.4293242  56.5545225  74.9023342
  20.8436203  56.1597729  74.2563057  21.7767835  55.8117342  75.3960657
  29.3766475  90.9032154  74.0947962  28.5017610  91.2378597  73.8977718
  29.7791958  91.5862846  74.6310806  42.0178604  38.6088395  60.1196575
  41.5500784  38.7898111  60.9349251  42.7887392  39.1751647  60.1550484
  15.3162158  49.9099588  90.6472301  15.0616860  49.1312265  90.1522350
  14.4904721  50.3585815  90.8292103  67.6835943   5.5999660  76.0976982
  66.8704558   5.1239776  75.9289551  67.4779249   6.1704063  76.8383217
  29.9742341  53.2097435  37.8067756  29.5026278  52.8419638  37.0594096
  30.5944443  53.8268375  37.4184918  13.8549483  52.9223919  57.3960066
  13.8293791  51.9944811  57.1624184  13.5194552  52.9531670  58.2919550
  20.4201460  63.8075495  57.9410839  21.3058758  63.4447289  57.9496527
  20.3480983  64.2434931  57.0919657  34.2604351  47.6404953  72.6881027
  35.1067591  47.3867273  72.3199034  34.3320131  48.5852718  72.8241301
  43.9790392  64.9121475  57.3210478  44.2460632  64.1443491  56.8156576
  44.6420908  65.5729294  57.1211290  48.2598495  46.1382008  78.0183411
  49.2124653  46.2172651  78.0684280  48.0320549  45.5349541  78.7257576
  32.5008869  58.2301807  63.0092525  32.3760486  57.2817612  62.9753780
  33.4072232  58.3423710  63.2959557  53.6245966  58.7231493  65.7961655
  53.9205265  58.1722403  66.5208483  53.3350420  59.5339727  66.2144423
  67.3401094  10.5643272  80.5148697  68.2584096  10.7936191  80.6576252
  66.9121266  11.3985252  80.3220654 112.9053370  52.6815844  36.3652921
 113.5419892  52.8143120  35.6629467 113.2919765  53.1176853  37.1246052
  39.5919800  60.4116964  61.9050980  40.3314590  60.6436491  61.3433170
  39.9844456  59.9210358  62.6272154  12.5831997  93.6596870  26.9960308
  12.9614556  93.8568497  26.1391282  12.9275274  94.3418407  27.5725245
 111.3789876  59.5031071  58.9021063 112.2746167  59.8175764  58.7788582
 110.9989868  60.1065636  59.5405912   3.4511098  29.3034315  63.9925909
   3.2271901  29.7256947  64.8219204   2.7621257  29.5809317  63.3888340
  42.2574250  68.0477316   8.9332974  42.6542363  68.6546881   8.3084976
  41.3522775  68.3476884   9.0167629  35.7244110  48.6362600  79.6017838
  35.0134182  48.4670591  78.9836502  36.0651588  49.4934368  79.3461037
  37.5743127  40.8153105  79.2324543  37.0876527  39.9987817  79.3450451
  37.1242499  41.4423847  79.7985363  23.7248468  71.6803551  72.8055382
  23.8415241  72.6189232  72.9528618  23.7671614  71.5801048  71.8545437
  31.6231990  55.9199524  73.6539888  32.1434212  56.3789034  74.3135071
  32.2665787  55.5996466  73.0217743  36.1519170  30.2342367  59.9718714
  35.6944942  31.0655093  60.0983000  36.9667888  30.4739571  59.5305634
  73.9430261  14.9167807  18.6844551  74.0036787  14.9521048  19.6390831
  73.0426704  14.6415693  18.5116875  27.2863269  66.8425274  39.6754789
  27.2873902  66.9928503  40.6207991  26.4125967  67.1109390  39.3912578
  89.3371691  31.6254599  21.1413490  88.5315146  31.5541250  20.6294262
  90.0391545  31.5252668  20.4983818  73.5373879   7.8681118   3.2306683
  73.1085247   7.1567709   2.7549469  73.2577430   8.6628467   2.7763188
  38.8134527  26.6382599  53.0893850  38.7260985  26.6157079  52.1364450
  39.7568822  26.5925002  53.2445669  17.5726938  70.9608412  54.6359158
  18.3693254  70.9063435  55.1637793  17.0101094  71.5704203  55.1135588
  40.7040453  80.3599930  35.5713367  40.3918839  80.8886433  34.8369503
  41.6498995  80.2990723  35.4376173  18.1757665  72.3933935  37.0440793
  18.9412141  71.8507147  37.2333479  18.5230768  73.2829666  36.9787931
  34.2003202  85.2713013  78.5490417  33.9226270  84.4614315  78.9770985
  33.8683558  85.1953793  77.6544666  70.1388359  87.0352554  61.7080593
  70.2756453  86.5874672  62.5429249  70.9260893  87.5666714  61.5894699
  23.6121035  68.4678888  43.6121368  23.0546355  69.2235899  43.4267139
  23.0624819  67.7100754  43.4124660  29.3786192  52.6026297  60.5889177
  30.2737141  52.5049782  60.9137249  29.3623281  52.0974064  59.7760773
  20.1618004  55.2420807  47.5052500  19.8325598  54.7243881  46.7705202
  21.0358739  54.8901081  47.6736069  18.8884103  72.5074863  72.0239401
  18.9559686  73.4506130  71.8750095  19.4387603  72.3459959  72.7902746
  11.6124368  95.6633568  66.7578268  11.2103331  96.4691162  67.0823193
  12.5338435  95.7387257  67.0059395  32.7124119  40.2239895  50.6164312
  31.8893290  39.9994636  51.0504293  33.3785176  40.1152134  51.2951851
  73.3763249   9.9916918  10.8596718  72.9551922  10.5983240  10.2506745
  74.2821662  10.2963478  10.9132015  43.7913561  83.6764717  38.4440637
  43.1620932  83.2996750  39.0591121  43.3289099  83.6893749  37.6060843
  26.3473800  41.3686068   1.3408196  25.8383802  42.1791632   1.3289559
  27.2160486  41.6267378   1.0325634   8.3535722  30.5367929   2.3160183
   8.7870553  31.3090784   1.9528305   7.4188331  30.7237894   2.2292149
  76.4976288   2.3699283  75.7658100  75.7787681   3.0018138  75.7517481
  77.1287061   2.7109527  75.1320267  48.0813099  14.3009567  38.5448289
  48.0132497  15.0701045  39.1105247  48.8698948  14.4552326  38.0246711
  47.9922915  72.9413366  34.4439936  48.1867838  73.3755064  35.2745986
  47.3993921  73.5422134  33.9927197  13.0545974  51.7491770  78.1799936
  13.7391317  51.1852074  77.8200102  12.2442031  51.2578106  78.0456352
  75.2611256 105.6462097  67.1410179  74.8169947 106.2709713  66.5677309
  74.7729778 104.8303604  67.0299959  73.4663487   1.3792323  72.0748806
  73.8355900   2.1559429  71.6546297  72.5272776   1.5576934  72.1251535
  28.0990958  75.4515362  63.2670641  28.0883002  76.2087154  62.6815796
  27.6773310  74.7543526  62.7647877 110.4522897   5.6701087  54.2705059
 111.2811757   5.2263355  54.4500732 109.8266126   4.9600410  54.1270924
  57.1609688  89.0576267  65.4580069  56.4345789  88.4607124  65.6376791
  57.9456472  88.5221195  65.5752611  38.6066318  73.2163572  48.9320707
  38.0942678  72.8927183  49.6729994  39.2242694  72.5103855  48.7413836
  62.2348309  75.4136753  45.1564217  62.8494787  75.8567142  44.5714760
  62.7493000  75.2155876  45.9389257  31.7340207  73.1150723  40.7607079
  31.9580984  74.0449858  40.7964277  31.4992571  72.8905153  41.6610956
  57.3400927  97.8682899  49.0599346  56.6580534  97.7541447  48.3980989
  57.7501726  98.7046337  48.8394880 102.3232414  32.7237017   3.4825909
 101.8291690  33.2908422   2.8905785 102.5357200  31.9538195   2.9549801
  56.9649172  80.4961395  78.0661201  56.9731283  81.2227821  78.6891413
  57.0196533  79.7118616  78.6121368  35.8295345  89.1670322  45.2911377
  35.2979493  88.4475422  44.9505758  36.3139558  89.4878292  44.5304489
  29.7188878  32.4910498  68.2817125  28.8960719  32.7084088  67.8435850
  30.3971171  32.7311444  67.6503706  28.6571884  79.5362568  27.1198773
  28.0544472  78.7952042  27.0584512  29.3496704  79.2336988  27.7073812
  34.9106026  82.4722481  49.9341488  34.1998458  82.1485138  49.3807411
  34.5306182  83.2164001  50.4011345  44.9004745  83.5792065  74.8001194
  44.9747276  83.7923336  75.7303333  45.2064943  84.3660069  74.3489695
  20.4595256  94.0084171  76.0734653  19.8068190  94.3647480  76.6761589
  20.6212854  93.1207657  76.3930559  28.3038664  74.8210812  74.8530149
  27.5622249  75.3992987  74.6745205  28.1369233  74.4819307  75.7324123
  50.2368832  84.4741535  61.9432259  50.7508373  84.8108387  62.6772022
  50.1176882  83.5451221  62.1405029  21.4619497  36.0517771   0.8781731
  21.4296630  36.4084417   1.7658627  22.3806241  36.1312944   0.6213772
  88.3170439  23.8604433  19.7452652  87.7697207  23.1034977  19.5362198
  89.1130819  23.7300426  19.2299473 102.8968334  74.2881870  57.2826290
 102.9276657  73.3319902  57.2514343 103.7304020  74.5671940  56.9037580
  76.5355326  14.7197627  80.4275322  75.9908367  15.0626277  79.7190285
  77.2482181  15.3534412  80.5098534  22.4888945  87.8825188  90.4602718
  21.7546535  87.3483944  90.1572323  22.1303058  88.7675953  90.5256367
  20.1312923  63.9717007  82.2292137  20.3806806  64.8473501  81.9337940
  20.9634542  63.5297728  82.3978519  68.5210419  96.7280960  70.3468227
  67.9794216  97.4880409  70.1338530  69.1194201  96.6448116  69.6043730
  48.7154627 102.8696346  65.0474405  48.7243032 103.6028862  64.4322157
  49.0383101 102.1260262  64.5384693 101.6860853  98.8957882  51.5296030
 102.0262395  98.2252693  50.9371996 101.4908348  99.6408081  50.9612322
  22.3102975  75.2258492  48.6077023  21.6292787  74.8133230  49.1389894
  23.1305528  74.8777008  48.9572859  87.8260638  45.3850252  21.3887417
  87.9172363  45.6533605  22.3030197  88.7138797  45.1509268  21.1181557
  58.8436437   8.4936809  75.0044441  59.2795850   7.8829002  75.5987024
  58.3498884   9.0771865  75.5805969  55.9981966 101.2489796  70.7127094
  55.5874062 101.8658733  70.1069546  56.4734554 101.8023872  71.3324690
  12.4183547  87.5520325  62.6327848  13.2664680  87.4232483  62.2081041
  11.7766798  87.3730087  61.9454432   7.3858264  37.5087816   6.2507927
   6.6402915  36.9197542   6.1347973   7.0698169  38.3584768   5.9435761
  36.2512064  85.6053257  74.3803644  35.4792213  85.3871441  73.8581896
  36.0166788  86.4193344  74.8260212  40.0272655  93.8677025  64.1988754
  40.0522280  94.0596867  63.2614613  40.4326057  93.0041218  64.2773771
  66.9217157  69.0678787  61.1813879  66.9061279  69.3552828  60.2684879
  67.8474522  68.9106941  61.3672352  54.6581268  84.8881340  71.8858719
  54.2072010  84.0872955  72.1533489  55.3363323  84.5900822  71.2797117
  23.0548429  75.2362967  46.1092615  22.2868299  75.4138088  45.5662346
  22.6977491  75.0664186  46.9809628  93.6656179  44.7875578   7.6418602
  93.7331785  45.7313330   7.7865898  94.2118324  44.4006140   8.3260834
  41.7642260  66.1330032  52.0836782  42.1335840  66.6215467  52.8192902
  42.2833586  66.4087296  51.3282299  56.6246986  60.8973789  58.1458282
  56.8831730  61.6944838  57.6831675  55.6820488  60.9939623  58.2811308
  70.7306576  74.1900444  49.0866804  69.8478842  74.5500422  49.1723967
  71.1507082  74.7405910  48.4258509  61.3921213  80.3001881  60.5333424
  60.5776787  80.0528812  60.0954390  61.2774181  80.0053310  61.4367437
  37.2977901 103.9298820  51.5088654  37.2064209 104.2913818  52.3904562
  37.3962331 102.9875946  51.6454029   6.0258963  16.5776157  52.6325941
   5.1060679  16.7919540  52.7881765   6.0020258  15.7357978  52.1776199
  55.0581026  69.6697187  64.0965700  54.2073584  69.4393539  63.7232113
  55.2570486  70.5298185  63.7266016  51.7264462  26.8813276  52.8975821
  51.1399364  26.7302561  52.1563578  52.2664309  26.0921454  52.9404545
  71.4620876  71.0154152  41.2274551  72.3549461  71.3551044  41.1670399
  71.3849115  70.7037449  42.1291971  14.6151164  33.6795139  84.2971611
  15.5335238  33.6030769  84.0384769  14.1244318  33.4057140  83.5222530
  15.8311367  86.9526482  57.1440887  16.2333584  86.5028286  57.8871346
  16.5705919  87.3025417  56.6470814   7.3224574  64.8173141  83.5861969
   7.0201302  65.6013298  83.1277752   6.8958294  64.0928411  83.1286335
  57.6595736  66.1169815  54.3918753  56.7412710  66.0593033  54.6557331
  58.1450891  65.7566786  55.1339579  83.3777190   1.2931156  79.1634798
  84.1224242   1.8770313  79.3073463  82.8467704   1.3826656  79.9548769
  37.6332641  89.5298672  47.2225380  38.0845666  90.3726768  47.1752262
  37.0207167  89.5445728  46.4871454  34.3518710 104.5075130  55.4661751
  33.6014700 105.0903797  55.3504324  34.2891502 103.8889217  54.7384071
  75.3567648  89.8936749  55.5748940  75.5170441  88.9519024  55.6349802
  76.1553812  90.2948952  55.9176254  55.8396721  83.5771179  77.1318293
  55.8384037  84.3981457  76.6397572  56.3639307  82.9792976  76.5989208
  57.0048952  77.4923897  77.1568680  57.3567820  77.9975939  77.8897905
  57.5428486  77.7499914  76.4082193  35.8011055 104.9854279  80.0229549
  35.0950980 104.5344639  80.4860115  36.0379624 104.3915462  79.3106079
   9.8174241  60.5390818  13.5394394  10.4145768  59.8314840  13.7822354
   9.9911836  60.6909735  12.6104843   7.3919871   0.6362914  71.7350864
   7.7145483   1.2561321  72.3892879   7.4392321  -0.2157689  72.1686602
  28.8800097  81.5925789  69.7829437  29.5471406  81.8723583  70.4097509
  28.7294602  80.6700611  69.9891949  47.7018118 104.7965622  68.1921673
  47.0913935 105.4856110  67.9297972  48.5679245 105.1640224  68.0159378
 102.2554709  41.8397886  20.6955921 101.8828751  40.9780104  20.5092251
 102.7007128  42.0884878  19.8855698  43.4025831  24.8306655  52.0424843
  43.6873771  24.6111774  52.9295874  43.1463177  23.9919948  51.6588211
  50.2350092  73.4143734  70.6579685  50.1395655  74.3623114  70.7503414
  49.8608494  73.2185555  69.7989607  66.6649986   4.7105693  86.9870853
  65.9392286   4.0948486  87.0889568  66.2460852   5.5368614  86.7463017
  58.4975243  73.1841278  47.7519941  58.5158253  73.8007355  47.0200825
  58.7169313  72.3393440  47.3590136  34.8607969  98.4636688  38.2354546
  34.1340327  98.1142998  38.7511945  34.6809888  99.4017506  38.1730056
  19.9928379  73.3668804  43.6550379  19.2629111  72.9780483  43.1731129
  20.7156205  73.3773518  43.0275774  65.3762150  87.4365997  71.2924433
  66.1241484  86.9517136  71.6413164  64.9423122  87.7966499  72.0659542
  68.4704662  16.5542983  71.5796041  68.0809260  16.9340705  70.7920313
  69.0462495  15.8630847  71.2526083  55.4581547  78.7586689  70.8802271
  56.0698366  78.0706358  70.6181431  56.0133553  79.4433784  71.2532616
  35.3670931  94.4794559  91.4852619  34.7827983  94.4081116  92.2400761
  35.0749040  95.2691269  91.0299873  34.8530579 102.9650879  24.3900633
  35.3049111 102.6581287  25.1760912  35.5050993 102.8881741  23.6935306
  12.9338029  18.8505346   6.6962921  12.2219089  19.3985922   6.3660347
  12.4970201  18.0691988   7.0353710  17.2043538 100.6687260  53.5562992
  17.5626147 100.1917171  54.3048620  16.2695289 100.7462978  53.7468719
  38.6716032  85.4771614  53.6204767  39.5474195  85.3758430  53.2477617
  38.2530785  86.1405087  53.0717993  41.6447735  85.7801056  59.7867966
  41.0280180  86.5013027  59.6614027  42.0373487  85.9469318  60.6437016
  51.4190483  95.8096695  56.4903069  51.6351748  96.0266018  55.5834103
  52.2390461  95.9338474  56.9682264  22.2872448  66.3163090  42.2822762
  21.4694691  66.6539621  41.9169474  22.0114994  65.6463480  42.9078531
   0.5620364  41.5785677  20.6566822   0.2561477  41.6979963  21.5557873
   1.1649230  42.3074324  20.5099880  12.1802378  68.7638998  64.8760366
  13.0506098  68.3726978  64.9511957  11.6656756  68.1133223  64.3983269
  47.0328188  89.3238735  62.7787924  46.4521551  89.1801548  63.5260582
  47.8424072  88.8705254  63.0138922  45.8988047  70.0498676  83.9644051
  44.9837112  70.2184486  84.1889477  46.3935852  70.6831741  84.4843578
  46.1116171  72.8408384  45.8552504  46.4418411  73.5930061  45.3638983
  45.4498339  72.4526834  45.2828789  43.8965181  10.4133732   2.5561344
  43.4600118   9.5685036   2.6651776  44.5269254  10.4518587   3.2753956
  49.4465780  86.4536476  77.4968863  50.1877308  85.8785343  77.3067188
  49.6651459  87.2778034  77.0618725  95.7694982  90.8213329  61.4482307
  96.3775216  90.3203964  61.9919205  94.9570881  90.3155804  61.4691114
  48.0643749  71.2990808  55.3461456  47.6372433  71.0442734  56.1639881
  47.3794127  71.7434025  54.8465157  76.4107656  87.5834465  61.4573240
  76.0149097  86.8245983  61.8859053  77.3349619  87.5422573  61.7030954
  44.6686983  73.1969023  64.9335146  44.2180824  73.0795956  65.7698298
  45.5987835  73.1408691  65.1526642  79.8817159   7.1872615  58.7254858
  79.8190165   8.0246257  58.2660007  80.2089692   6.5759086  58.0656576
  38.6617064  89.4692993  63.4231567  38.9832067  89.7589588  62.5693607
  38.6843371  88.5135365  63.3759451  31.2353992  94.4082451  64.0720177
  30.3764367  94.0989685  63.7843227  31.7771053  93.6195469  64.0993881
   7.2983295  83.9679718  64.1018534   7.5278091  84.2345905  64.9920654
   6.4685589  84.4113541  63.9254236  57.0442390  30.6919456  71.2880373
  56.2261105  30.6360245  71.7817640  57.7297497  30.5852032  71.9475174
  76.5639807   2.6672553  71.3719606  75.8059216   3.0012035  70.8923149
  76.8429757   3.4009265  71.9197989  92.5001431 100.4365063  56.1560345
  91.7168617 100.1463604  55.6885672  93.1846428  99.8283768  55.8769941
  49.7314453 103.9630699  88.1725693  49.6133089 104.1239548  87.2364044
  50.5323029 103.4416008  88.2267761  26.3968325  88.9917660  44.3762112
  26.6430306  88.0970383  44.1415119  25.4763412  88.9279079  44.6308708
  19.2715457  37.4248869  10.0116074  18.3306983  37.4193651  10.1876938
  19.4004491  38.1675512   9.4216263  50.0709963 100.3918839  66.8957233
  49.9280500 100.3939629  65.9492588  49.8842430  99.4922733  67.1641779
  76.1165701  39.1616995   6.0901081  76.8186934  38.6626131   5.6727707
  76.5566477  39.9215490   6.4711392  72.5562048  91.3603401  55.5844259
  73.5050535  91.4267826  55.4771614  72.3750687  90.4215813  55.5380201
  50.6384659  81.7072010  61.8558931  50.5356503  81.3164616  60.9881449
  51.5832996  81.7048073  62.0092201  73.4953833   4.1025066  63.9502668
  73.8578583   4.2335128  63.0740929  72.5918556   3.8262271  63.7968302
  23.7924719  94.6729851  85.8777428  24.1878963  94.8423481  86.7328358
  22.8556824  94.5950699  86.0582638  33.4031129  73.8502884  74.9612045
  33.9143968  73.2057953  75.4505396  32.8187895  73.3263826  74.4131899
  15.7500842  72.4269087   2.2166931  15.7748416  73.0170614   2.9699146
  15.9641507  72.9843218   1.4685642  25.5631137  98.2093334  48.5821962
  25.5080533  97.6333809  49.3447495  25.4663491  99.0915012  48.9408588
  73.4324480   2.6253223  37.7903795  73.5656548   1.8211078  38.2920885
  73.1505490   3.2691097  38.4402299  28.4227371  84.2518806  81.7036819
  27.5985408  84.0158939  81.2779617  28.4278417  83.7430096  82.5144005
  45.3053856 102.3940659  56.3824320  45.4892635 101.5178585  56.7210865
  44.9464893 102.8698921  57.1314430 107.9832174  21.1674625   7.3424351
 108.3011462  20.3033001   7.6039231 107.4025561  21.4347250   8.0549252
  29.3572450  81.2409306  60.7595015  28.8313556  80.4434490  60.6987000
  28.7894845  81.8687344  61.2064171  78.7960434  74.8689365  83.8804436
  79.0508461  73.9536619  83.9969826  79.4737768  75.3663683  84.3381214
  27.6615095  62.0714235  26.2170315  27.7982545  62.7933598  26.8305016
  28.5445142  61.7943382  25.9725738  39.5023775  56.5653229  63.1662703
  38.5913205  56.4396286  62.9009247  39.7155166  57.4528599  62.8780365
 105.8908965  39.2262060  12.9867947 105.3350331  39.9203379  12.6326286
 105.8884813  38.5488874  12.3104298  43.8038921 105.1706123  69.9901724
  43.2650661 104.9006462  69.2465210  43.2296944 105.0733376  70.7498217
  41.3490820  78.0989456  58.6774731  41.7411232  77.4452305  59.2564249
  41.9572067  78.1620836  57.9409742   2.4926355  39.9192166  46.4242649
   2.3126262  40.7583237  46.0003185   2.6858804  39.3222427  45.7014132
  37.2011971  48.3676481  57.5112724  36.7651725  48.9382124  58.1441832
  37.6384282  47.7057505  58.0469561  54.2452002  81.9964218  69.1602564
  55.0563049  81.5416622  69.3872881  54.5054054  82.9113674  69.0535116
  37.4496984  84.0699959  76.3767719  37.3424196  84.7200489  77.0711470
  37.1176910  84.5027447  75.5901814  51.2907600  48.9227247  60.8885717
  51.7414761  49.7564650  61.0226011  50.4806328  49.1583729  60.4364729
  48.6875391  92.3338318  81.3321114  47.7489185  92.1755028  81.4328766
  48.7481499  92.9676819  80.6174088  41.1368608  67.9455233  68.4779263
  41.6423798  68.2177830  69.2437983  40.2273798  68.1281996  68.7139511
  50.3625059  54.6633768  66.1978292  49.9187613  54.5155668  65.3626776
  51.1822891  55.0965786  65.9600925  45.5851364  65.1298046  38.4006453
  45.0653982  65.7744217  37.9204726  45.4219007  64.3036222  37.9456639
 108.6070372  93.0822372  50.3140783 109.2165069  93.4071445  49.6513462
 107.7578048  93.4391785  50.0540209  15.7589531  69.9732542  47.8230953
  14.8474956  69.7770357  48.0398273  15.7105339  70.7481050  47.2631836
   5.9401658  25.9433634   4.7734558   6.7896798  25.9316236   4.3325150
   5.9518913  25.1694281   5.3365910  29.0761685  78.4789562  49.2939138
  28.3706522  78.3633280  48.6574316  28.7666607  79.1777229  49.8702478
  38.6686063  74.6960115  65.2352571  38.8482285  74.8798513  66.1573029
  39.0186095  75.4541206  64.7672796  61.0397863 102.7905941  76.0558462
  60.7089376 103.3402729  75.3454733  60.2529478 102.4552345  76.4855480
  17.2968245  92.2604370  74.3101263  17.4206400  93.0519962  73.7863493
  16.7389762  91.7006779  73.7700272  39.2769337  98.0980396  86.6571426
  39.8095131  97.6968575  87.3439026  38.6634445  98.6617661  87.1283817
  53.6967850  67.7645826  73.1842709  54.1222382  68.5203266  73.5893250
  53.3253384  68.1062555  72.3709297  29.6840191  76.3449001  45.1040268
  29.5345831  77.2798634  45.2445555  29.5272040  75.9459877  45.9598923
  48.7447453 105.8307171  65.0440836  49.0461206 105.3031826  65.7837582
  47.8909969 106.1642933  65.3198957  38.4443191  56.0412962   7.7626621
  38.5051540  56.8711550   8.2358181  38.0621150  55.4326040   8.3948338
  44.5354557  82.7309513  72.3586273  45.2110672  82.0629025  72.2424459
  44.6916294  83.0794334  73.2363510  25.5304170  74.1460037  80.1089573
  25.3661203  74.3499994  79.1882896  25.6125450  73.1926155  80.1320648
  42.4317026  98.2131100  47.0962286  43.2768822  98.1811810  46.6480303
  41.7897367  98.0300999  46.4102125  23.1105089  25.7576108  41.4094877
  23.8944340  25.8513808  40.8682871  22.8117323  26.6551352  41.5558338
 110.3117768 106.5252876  72.9646397 110.5984978 106.3517094  73.8612413
 109.3599395 106.6037464  73.0285120 105.7675316  19.1863329   9.4532311
 105.8989240  19.7886497  10.1854717 104.8385503  19.2698175   9.2381584
  78.1393433 101.0327339  89.8362637  77.7363539 101.8231392  90.1955414
  78.1764460 101.1904144  88.8928699  64.5968866 103.9294434  41.2385082
  63.8236141 104.4555664  41.4421606  65.1603985 104.5168495  40.7348824
  42.9655547   3.4734344  79.0430355  43.6321545   3.6194991  78.3718157
  42.2149945   3.1234455  78.5630417  45.8932018  85.8520889  73.6290741
  46.8257761  85.7791805  73.8320971  45.8606529  86.4035225  72.8473473
  79.6804143  24.5575237  12.8182018  80.1062632  23.8704585  12.3055327
  79.8193646  25.3566169  12.3098922  26.0235933  40.6900484   4.4209301
  26.8710044  40.7908804   3.9873898  25.9639123  41.4434702   5.0083172
  97.5863934  26.5262603  51.3916826  98.4305383  26.8617343  51.6935253
  97.7534438  26.2265109  50.4981089  24.0849447  78.6976528  55.7901478
  23.1898189  78.5657883  55.4777527  24.6316767  78.2430220  55.1493454
  23.5021642  10.7594711  14.8099625  23.8764957  10.8065588  13.9302456
  22.6703599  11.2281639  14.7417080  32.7684975  76.6097164  54.3081141
  33.2345057  76.8963671  55.0935411  31.9778538  77.1489143  54.2885351
  79.6224403  84.6100807  60.0598288  80.4859161  84.6225929  59.6469402
  79.1826248  85.3888988  59.7188854  77.7750063  95.2636814  56.2128592
  76.9734240  94.9806404  56.6528416  77.7743244  96.2165737  56.3035393
  41.6845560  83.4699345  58.6484432  41.2727547  83.6326313  57.7998114
  41.7023659  84.3270206  59.0742683  74.0935684  18.8191795  44.5011139
  73.9160491  17.9400825  44.8356295  74.7615505  18.6889552  43.8280106
  53.5112429  70.8910608  87.1127319  54.2083549  71.2109137  87.6854038
  52.7571106  70.7809973  87.6918697  77.6449585 100.9189892  55.8434534
  77.1447468 101.6637611  56.1771441  77.6273155 101.0254478  54.8923588
  35.7493305  94.2286682  79.7197533  34.9395585  93.8554859  79.3715620
  35.5559874  94.4031429  80.6408501  21.2003282  27.3010046  13.7796890
  21.6588834  28.0169279  14.2194760  20.4448083  27.1210081  14.3391716
   1.9729689  32.1224291  11.5689575   2.0198134  33.0129225  11.9168961
   1.1071590  31.8085653  11.8299114  68.5134077  91.1521530  47.6556063
  69.0143681  91.4199162  46.8851662  68.4423399  91.9475174  48.1833982
  12.9319479  15.5973052  31.8656063  13.6458876  16.2323951  31.8091345
  13.3347228  14.7623443  31.6271973  10.7344344  35.9856493   4.9018776
  11.0653499  35.1677591   4.5306980  10.6063560  36.5575869   4.1450989
   4.0417641  87.7579689   4.6280757   3.5746235  88.0452538   3.8435519
   3.6561757  86.9075012   4.8384672  43.8923120  98.0916214  65.9249258
  44.7277021  98.4178066  65.5903292  43.2336283  98.6444092  65.5044556
  68.3906269  78.1747103  74.0339136  68.8219547  78.9672899  73.7145281
  69.0417004  77.7588797  74.5990801  49.9410820  85.8013153  68.4259558
  49.1904306  85.7884312  67.8321648  50.3553343  84.9466515  68.3069086
  36.1041069  87.5009537  65.5281544  36.9207263  87.0610046  65.7643986
  35.8725452  88.0095577  66.3052893  73.6300755 104.8226547  78.1599140
  74.0143156 104.2153072  78.7921476  74.3813229 105.2705193  77.7709627
  11.6362432  26.9286806  10.3206551  12.3509029  26.6104109  10.8721935
  11.2121394  27.6071722  10.8460343  68.3124924  93.7953949  66.7650270
  67.4061394  94.0520096  66.5950060  68.2755709  92.8454304  66.8765068
  49.4614887 104.8394871  58.5465097  48.7638187 104.9768543  57.9057169
  49.2674208 103.9853191  58.9324713  21.1546898  73.1157780  73.8937330
  21.9792747  73.4744740  74.2217922  20.5078053  73.3574915  74.5565701
   8.6039880  48.2286627  14.0863716   9.3551257  48.7740118  14.3200600
   8.8587621  47.8096086  13.2643521  55.8287859  83.5910606  63.6328220
  55.5556393  83.5134411  64.5469332  55.0352001  83.8551617  63.1673098
  50.0435925  85.9152794  88.4811211  49.9495029  85.3731918  89.2643929
  49.3397045  86.5602589  88.5502529  52.8599834  92.6069546  61.1127615
  53.0887318  92.5530338  60.1848602  53.3629513  91.9043922  61.5246630
   4.6360114  17.9269981  76.4091587   3.6890700  18.0667209  76.4085627
   4.9651530  18.5196971  77.0848846  53.6499166  82.0778561  77.4426174
  53.6629295  81.5046024  78.2090664  54.4543552  82.5916672  77.5141287
  20.6045938  96.3098526  59.1106224  21.2447953  95.8560753  59.6587706
  20.9471345  96.2236881  58.2209778  88.0058814   1.0712528  74.1380262
  87.8665973   1.2825012  75.0611734  87.4302770   1.6724204  73.6652613
  32.0001316  92.1849537  67.8097200  31.3825893  92.9074383  67.9231977
  32.8626990  92.5963116  67.8644323  82.4288654  94.2600155  75.7812452
  82.3801994  94.3419743  76.7336845  82.8817272  95.0533867  75.4954004
  34.8820639  98.1175804  53.1767130  35.0353360  97.7583027  52.3028374
  35.0832748  97.3950386  53.7714195  91.6617585   8.1401252  66.3304234
  92.0464373   9.0116786  66.2374592  91.6201545   7.9962825  67.2758389
  47.3460579 106.0628223  61.1773729  47.2103834 105.3953362  60.5048561
  48.1787872 106.4727592  60.9434080  43.4831575  50.8775503  30.5804455
  44.2723611  50.7969267  30.0448334  43.7428525  50.5479223  31.4407551
  34.0663123  85.0703812  64.3381453  33.7143803  84.9152279  65.2146769
  34.8298883  85.6293583  64.4821167  61.6158105   2.8253364  47.1492815
  62.4720741   2.9547405  47.5570774  61.1309481   3.6255550  47.3512363
  79.0063286 104.7613907  75.6605291  79.0612411 103.8183403  75.8150434
  78.3004332 104.8586750  75.0214052  93.8164438  49.1961557   5.8845722
  94.6190740  49.4154245   5.4113495  93.4541001  48.4490950   5.4083073
  32.8326801  39.0739042  42.6659310  32.7788213  38.7738687  41.7585671
  32.4183324  38.3763582  43.1738484  87.1210481  12.8944683  69.3263006
  86.2100268  13.1881046  69.3334627  87.0966245  12.0280265  69.7323895
  12.9302171  80.2938158   6.1605179  12.2597745  80.9512979   6.3461506
  13.7543777  80.7181818   6.3990509  34.3270063  90.7790184  69.9882841
  34.2168784  91.6513729  69.6100092  34.5935678  90.9421730  70.8930254
  90.1563181  32.5554926   8.4492218  90.2267279  31.6739447   8.0829537
  90.6929840  32.5292761   9.2414009  31.9381046  87.7802849  65.5510187
  31.4093471  88.0535984  66.3006496  32.4302649  87.0231247  65.8683968
  27.9382968  89.5874214  77.7794075  28.5997462  89.3756104  78.4380817
  28.1761312  90.4628658  77.4740219  38.2916284  67.0637083  66.1675549
  38.7475729  66.2663555  65.8981562  38.3089995  67.0379353  67.1242476
  12.6069692  20.1272041  11.9958508  11.8228677  20.6275350  11.7698204
  12.4145463  19.2358953  11.7046845 103.4564068  34.3783838  20.0795948
 104.3313886  34.5575125  19.7352898 103.0328395  33.8569242  19.3977558
   8.2469943  17.0890521  33.6833167   9.1895487  16.9303703  33.7348056
   7.8820040  16.2629413  33.3662295  46.7499256  81.1583328  71.2676191
  47.1223927  80.8589458  72.0969963  47.4524069  81.0314655  70.6299210
  42.6478386  87.2849560  73.4352350  43.3649349  87.5755501  73.9987612
  42.8045034  86.3487625  73.3118200  33.1365493  57.1325285   8.6227905
  32.4186376  56.9993002   8.0038464  33.7622884  56.4380629   8.4168923
  84.2054462  93.7251663  69.1400480  83.7711716  93.5318851  69.9708796
  84.8674583  93.0396175  69.0506554  74.9285412  88.9251137  59.2609739
  75.4184151  88.6537266  60.0372505  74.5811176  88.1095982  58.8997698
  83.0244350  79.5246172  70.0220394  83.3089828  80.3794765  70.3452682
  83.7461376  78.9343119  70.2386427  52.6989365  74.7934246  86.0367966
  53.2191706  75.5868578  86.1635017  52.1135330  75.0044584  85.3094673
  58.4093285  77.0281219  31.0641241  58.5173321  77.8178215  30.5340886
  57.5172043  77.0890379  31.4056396  67.4986506  22.2233676  67.2887230
  66.8227101  22.7422141  66.8526745  67.0438505  21.8017864  68.0178690
  61.0568285 102.5840473  80.7561970  61.8386936 102.8283310  81.2514210
  61.1621380 103.0213356  79.9112654  89.7449398  99.2744637  82.1125031
  90.0454044  99.2359638  81.2045002  89.8612595 100.1905060  82.3646355
 111.9707156  10.6508636  67.9950380 111.5645171  11.5127754  67.9036522
 112.9008389  10.8368492  68.1235313  50.1896667  75.8766842  82.1802235
  50.4079294  76.7619085  82.4717331  49.9378157  75.4161978  82.9806900
  45.8054972  84.7283363  29.3834496  45.8711529  84.8744965  30.3271437
  46.6022444  85.1190186  29.0245700  64.6298075  75.8741093  30.6611514
  65.3560925  76.4943171  30.7250285  64.0388393  76.1233187  31.3717031
  36.8915081  96.4246082  42.7132273  37.7491951  96.3218403  42.3008633
  36.6907573  95.5583572  43.0675364  99.5086099   0.1729869  46.3093138
 100.1678420  -0.4633618  46.0323334  99.9086762   0.6241416  47.0527077
  49.0033627  24.2365837  85.0670528  48.6382879  23.9217376  84.2401218
  48.4554447  23.8326263  85.7399940  37.5312948 104.1617870  59.5690823
  37.4506569 103.3125877  60.0033522  36.6290641 104.4236279  59.3856430
  54.6417999  84.3552589  67.7806759  54.1316509  85.0214958  68.2412291
  55.4763889  84.7828674  67.5887537  30.0322628  82.3625946  63.5571814
  29.8713613  83.3059502  63.5366058  29.1591501  81.9704247  63.5468769
  40.1502994  58.9516336  30.9868920  39.4312909  58.4918005  30.5535137
  40.5179838  58.3062632  31.5906536  22.7099326   8.9489936  77.0969534
  23.4474280   8.6440086  76.5684462  22.0213702   8.3020973  76.9431973
  55.5642462  72.2728682  63.6203432  55.5810547  72.6176167  62.7275419
  55.5182743  73.0505228  64.1765547 105.0741340   6.6411018  79.8671627
 104.9679185   7.5761413  79.6920919 104.4739581   6.4633274  80.5913258
  54.2786121  71.9864845  69.7689438  55.1106405  72.4549532  69.8359919
  54.5278168  71.0809231  69.5843220  82.6449157  11.9770526  55.7369280
  81.9887353  12.2372341  56.3834333  82.3706723  11.1043357  55.4551840
  34.5421124  92.0781994  58.6893702  35.2107668  91.7269421  58.1013632
  33.8973355  91.3749313  58.7661695  10.9967235  36.9093496  11.4434254
  10.5744556  37.5437529  12.0226013  10.5875305  36.0729677  11.6653835
   3.3844283  23.4922010  21.4819443   2.8632596  22.9977400  20.8493912
   4.2398027  23.0626423  21.4754116  74.9033380   6.4949893  81.1711788
  74.4828058   5.6487941  81.0183907  74.8630358   6.6146278  82.1200180
  51.6505003 102.1602631  68.3569288  51.2895584 101.4111805  67.8827667
  51.0135460 102.3346329  69.0498352  71.0646439 104.3845654  87.6226330
  71.6084719 104.2625713  88.4008312  71.3111067 105.2480507  87.2911644
  92.8263951   6.6028976  60.5995750  93.0158568   6.5146255  61.5336752
  92.4067307   7.4595260  60.5202150  66.7771364   6.1069011  67.3708630
  67.0158864   5.3362178  67.8859043  67.1913005   5.9639453  66.5198231
  87.1959020  21.1271476  62.7977037  88.0786992  21.0151863  63.1503582
  86.9995786  22.0541286  62.9333544 111.1468030   7.0927333  41.1241055
 110.9057141   6.1751937  40.9967232 111.8403579   7.2493266  40.4832506
  34.8058867  91.5179825  85.1331139  35.5571675  92.0110416  85.4627991
  34.9454093  90.6266212  85.4528618  59.4360447  75.6925821  69.3728018
  59.6479559  74.9618292  68.7920046  58.4828377  75.7666588  69.3265390
  56.8472722  66.6172487  10.3488171  55.9741357  66.8904669  10.0673687
  57.3623708  66.5935594   9.5423805  28.6202052   6.6096687  68.3316803
  28.2180884   5.8492374  67.9118347  29.5594313   6.4939117  68.1878376
  63.0551004 102.5917244  89.9579334  63.7050343 103.2405186  89.6879673
  62.9757690 102.7116013  90.9042740  85.3831626   3.5478591  67.8275728
  85.6211377   4.2055320  67.1740627  84.4470883   3.6837768  67.9743004
  13.5720971  29.2460234  13.0436814  13.9647821  30.0289614  13.4297383
  14.1809371  28.9893324  12.3511135  34.8131299  82.3093128  65.9563065
  35.2889347  81.8606758  65.2573299  33.8908601  82.2105598  65.7198811
   6.5788177  23.9262468   6.5598213   7.0021871  24.4180948   7.2634422
   6.2924770  23.1126863   6.9749844  50.3018808  88.3239651  84.1025543
  50.6502151  89.1978264  84.2793465  49.3517542  88.4314537  84.1464615
  41.1064863  85.7127666  49.4549751  40.2388430  85.3583813  49.2604446
  40.9321928  86.5347862  49.9133778  59.7773552  83.8494015  54.8818064
  59.0098238  83.9733315  54.3234444  59.5930004  84.3725300  55.6619263
  63.8534164  69.6643829  65.3338528  63.9801884  70.0019073  66.2205505
  64.6329832  69.9475861  64.8560381  54.3919516  92.4270058  28.0419278
  55.3424025  92.5383472  28.0199361  54.0552902  93.1327438  27.4898148
  92.1916152   8.1784057  80.1120090  92.1866322   9.1315841  80.1995754
  91.5508080   7.8754329  80.7552814  17.1281435   1.1353683  43.7122869
  17.2681429   0.3361511  43.2044697  17.1933367   1.8418884  43.0697823
  58.4810400  89.7342491  77.0369816  58.4347248  88.8162994  76.7696619
  57.6776981  89.8789501  77.5369215   9.7304251   4.8047256  45.8646202
  10.6431677   5.0027561  45.6550360   9.6736529   4.9134159  46.8139315
  28.6841634  42.2095854  16.0513985  27.8526071  41.9686586  15.6431114
  29.3508104  41.8951971  15.4406845  76.8321181  10.4421520  78.8739061
  76.8510342   9.7588348  79.5439434  76.1508346  11.0469245  79.1677332
  53.6493540 105.5179596  69.5539427  54.1494131 105.4302883  70.3654146
  52.8028536 105.8685875  69.8309422  93.5331250  31.6861724  65.9031010
  94.2108155  31.4087772  65.2866411  92.7434159  31.7706870  65.3688240
  14.1544330  83.8200951  88.3957577  14.1459441  83.3906651  89.2511845
  13.2658911  84.1598511  88.2894897  57.9742647   7.1459007  72.9858065
  58.2220555   7.8324890  73.6050224  58.3145333   6.3395690  73.3734560
  19.2132285  53.2860929  15.4017937  18.7854293  52.4887926  15.0894940
  20.0879529  53.0008680  15.6658661   7.2922233  39.7676451  17.0099938
   6.3909963  39.4618589  17.1125328   7.5262979  40.1159937  17.8702748
  10.1058725  53.5606272   1.8360340   9.8042730  52.7662641   2.2767746
   9.5103267  53.6635096   1.0937607  25.2758363  81.2192614   4.4216835
  24.7433713  80.5323965   4.0205204  25.3891280  81.8698961   3.7288105
  89.6251965 103.0240250  77.3943472  89.5999813 103.0512619  76.4378643
  89.8040295 103.9275074  77.6550484  92.3238017  29.6366293   0.3386604
  92.8671934  28.9806158  -0.0979221  91.4869310  29.6012194  -0.1246155
  90.2203799  20.4712200  62.7992249  90.7198668  21.2191963  62.4716997
  90.2932692  19.8132896  62.1078253  93.6896229  92.6170540  74.1311884
  94.4179916  92.0732403  74.4311666  92.9233265  92.0468807  74.1939211
  36.0630393  89.0949345  86.7876530  35.9228563  88.1564903  86.6615295
  36.7371368  89.3244934  86.1480236   2.5542262  32.0279676  20.5271065
   2.7028278  31.1220724  20.7982361   2.0999721  32.4283964  21.2684166
  99.8662903  28.6528665  15.5121529 100.6534864  28.2028753  15.2054608
  99.9533178  29.5444471  15.1749050  58.5401344  86.0812092  49.1013002
  58.9696264  86.8714523  49.4288254  59.2547703  85.4591274  48.9651442
  50.3347874 101.0174370  91.3620758  51.0164261 100.3841305  91.5868568
  50.2687311 100.9698296  90.4083443  63.0662060  70.2462292  52.5573730
  62.9382277  70.8096552  51.7942190  63.0009747  70.8388376  53.3062363
  32.7586606  70.0239641  17.4706471  33.5354760  70.0976545  18.0250561
  32.5700429  70.9230978  17.2019112  92.7071334   9.5648574  60.2654123
  92.1356250   9.6094226  61.0319757  92.1207524   9.7012042  59.5212364
  67.8289509  91.7179394  51.5746975  68.0586386  92.2692680  50.8266926
  67.1681976  92.2218990  52.0497465   8.7002042  13.9365656  11.3535893
   9.0779975  14.8160393  11.3480484   8.2337669  13.8710005  10.5203068
   6.5593421  92.7188492  74.2737341   6.1210668  93.5141373  73.9709759
   6.1300838  92.5098419  75.1033640  67.4283171  99.7824097  66.6581774
  67.2827721 100.3708839  67.3989534  66.5961933  99.7825336  66.1850977
  48.0831480  87.2855377  58.7001085  47.2019672  87.4354458  59.0425777
  48.4382296  88.1633472  58.5600901  84.6077443   2.4359702  64.6598101
  84.7834588   2.1359825  63.7679768  85.4617883   2.7123165  64.9921894
  86.7608452  80.7443523  68.9244080  87.4872017  81.3668156  68.9587450
  85.9949207  81.2810421  68.7205458  63.7851763  81.8218517  54.2017269
  63.0797482  81.3810253  53.7281466  64.4515848  81.1454773  54.3227625
  34.4234705  93.5387516  68.9268064  34.0204740  94.1716957  69.5211267
  35.3223443  93.8497448  68.8193703  88.5503245   5.0243186  80.9108448
  88.1032611   4.5607662  81.6190052  89.3452168   4.5143032  80.7550716
  18.8857463  37.1037943   6.8776142  18.6026910  37.5048620   6.0558712
  19.8384336  37.1965868   6.8737328  89.9317932  91.5693283  60.0152063
  89.7447872  90.6418419  59.8701811  89.2579269  92.0304871  59.5157385
  70.6858206  86.2390137  58.7239981  70.2102375  85.8951473  57.9678249
  70.3784847  87.1414375  58.8101006  69.0129972   4.5157337  49.3722773
  69.1436005   4.5528983  50.3197956  68.9453150   3.5812568  49.1763020
  16.1290124  52.9780180  15.4288494  16.2038806  52.3063070  14.7510349
  16.1496881  52.4905950  16.2523949  47.7232742  78.7137794  44.3949413
  47.9011869  79.5869017  44.0453196  48.1963491  78.1209707  43.8109827
  46.0646439 101.9324875  91.4542770  46.6106319 102.7176380  91.4135742
  46.4367104 101.4189243  92.1712494  76.2238885  17.3814678  50.8484459
  77.0521952  17.7657222  51.1356640  75.7915974  18.0819129  50.3598404
  15.4017472  92.2750282  41.0462427  15.6354821  92.1800327  41.9695950
  15.1765263  91.3886261  40.7637644  76.4935112  75.8717966  82.6546383
  77.0373964  75.2416420  83.1272125  77.0408344  76.6537333  82.5822639
  37.7244854 103.6343670  84.5343781  37.3073196 104.4958782  84.5312977
  37.9149413 103.4637642  85.4567909  74.1958332 105.8129311  92.4593830
  74.2905712 105.6335640  91.5239239  73.6712694 106.6126633  92.4979973
  89.0445900  95.6747055  50.5584431  88.2232094  95.7043552  50.0678349
  89.3794060  94.7900486  50.4117298   0.9974196   2.5524711  46.1399412
   1.2454560   3.4603214  45.9652281   1.8172409   2.1229553  46.3841486
  37.1292925  78.9351654  89.0192986  37.8886938  79.5148277  88.9599037
  36.3757062  79.5164156  88.9168835 111.2134697  49.3788225  12.2708428
 110.8184387  48.5134680  12.3773396 110.8096196  49.9123461  12.9553044
  41.8374205  87.9307842  66.8651628  41.7716837  88.6695957  67.4701881
  41.9561911  88.3349228  66.0056305  41.8260193 100.5367756  88.4807777
  42.7451038 100.7066727  88.2742405  41.5059090 101.3619995  88.8451481
  48.8432884  88.8734627  65.5998659  49.2004681  89.7586632  65.6710815
  49.2989969  88.4909153  64.8500490  53.3235216  92.9458046  58.1993008
  52.5575113  92.5383663  57.7950096  54.0600681  92.4032211  57.9176426
  50.5515718  86.2335205  82.5413990  50.4526663  87.0258427  83.0692959
  51.1854029  86.4736176  81.8655014  58.4309340  66.4220810  65.7503319
  58.5917330  67.2937727  66.1116171  57.5461912  66.4722633  65.3884745
  24.1811299  85.6476593  80.8186722  23.5521483  85.1173115  80.3294373
  23.7803555  85.7601261  81.6806221  10.4363477  87.3615551  46.6996622
  10.8399570  87.1195507  45.8661318  10.4626143  88.3183384  46.7096424
  56.7593813 102.4637318  61.5928984  57.6251841 102.1517086  61.3297272
  56.5184069 103.0987263  60.9184027   7.8829768  59.4466192  10.7848847
   7.4050430  58.6232550  10.6854546   8.7568191  59.2592318  10.4420769
  49.5865656  11.9922637  85.3131008  49.4469572  11.9697284  86.2598038
  50.5354846  11.9216537  85.2091885  65.5740452  85.1731014  74.7804594
  64.7374201  84.8310852  75.0956059  65.9268904  84.4735909  74.2305326
  68.9386035  10.1441764  66.2142849  68.4135748   9.7390460  65.5240297
  68.8846565  11.0831451  66.0363531  59.9245024 104.4315815  44.9979687
  59.2427731 103.7675476  45.1006079  59.7900057 105.0286770  45.7339191
  44.4724035  92.2149944  30.6933069  44.5833588  91.4955711  30.0717354
  45.2458954  92.7640152  30.5647755  31.6023350  99.4304657  67.7180529
  32.2757101  99.0896893  67.1292686  30.7806039  99.0892220  67.3651409
  50.4879713  75.8281851  72.2046328  49.7173595  75.5006790  72.6684523
  51.2113237  75.6931353  72.8168011  21.6769222   6.2949974   7.0861828
  21.6552070   7.1030266   6.5734970  22.3654846   5.7704861   6.6775334
  76.9216871  84.7365189  43.8493776  77.4247074  84.8543549  44.6551752
  76.2998581  84.0384960  44.0551233  36.3215181  23.6109447  83.3892345
  35.4405523  23.3497047  83.6573410  36.7830782  23.7758445  84.2114258
  46.8115425  97.1162510  44.7465372  47.1391058  96.9301605  43.8665867
  46.2467146  96.3718891  44.9542284 106.0563279   2.1664619  54.6051550
 105.7767106   1.9465827  53.7165022 105.6671143   3.0246448  54.7732687
  89.5634915  40.3535540  18.9103615  90.3744401  40.4732210  19.4045937
  89.8099281  39.7868616  18.1793511  10.0550282  93.3459759  71.6913033
  10.9974360  93.2854939  71.8476343   9.9190760  94.2450142  71.3921738
   9.1410783  20.2899486  14.2824089   8.9957956  21.2071926  14.0504944
   8.4856609  19.8085386  13.7775337  43.7632516  52.1038420  13.4049141
  44.3938115  52.2373945  14.1125786  43.5583833  52.9866583  13.0968678
  48.9051628 100.0808334  76.3717222  48.0737591 100.5235291  76.2013769
  49.5103598 100.7868576  76.5986347  40.6371927  97.1555328  78.4323215
  40.0186825  97.1405315  79.1627026  40.3137255  96.4849377  77.8307343
  66.6852951 102.1841240  58.5893536  67.4615765 102.5351524  58.1530142
  66.8144941 101.2357140  58.5816336  36.1440090  27.5099165   0.5455887
  36.7939618  26.8240721   0.6985867  35.3413776  27.0353205   0.3293240
 103.0765248   6.4390945  84.6736717 103.7879516   5.8261394  84.8591137
 102.2986508   6.0224914  85.0446033  78.6241102  98.4970474  91.3050461
  78.3842325  99.3458652  90.9332943  78.5322809  97.8822231  90.5771828
  29.3406156  57.9406721  14.0819847  28.6485627  57.7831823  14.7242367
  30.1347116  57.6058847  14.4985974   8.9844364 101.9645882  66.9958115
   8.5225695 101.4951324  66.3011742   9.9105310 101.7902660  66.8278980
  47.3419428  81.8310261  34.1495466  47.5963593  81.1241245  34.7426772
  47.1327400  81.3894367  33.3264661  79.6999265  24.6024799  53.1307411
  79.7272492  24.9162292  52.2268391  80.6184960  24.5552825  53.3957624
  88.0075122   0.9201908  39.3248034  88.5417558   0.2076244  39.6755981
  87.4865771   1.2184142  40.0704002  53.3627462  93.6768723  87.3555946
  54.1041517  93.4419060  86.7976189  52.8083467  94.2241287  86.7993736
  72.7054262  66.7131853  53.6176729  71.8735886  66.2440968  53.5526276
  72.5795937  67.3244190  54.3434811  89.4551087   5.2597141  57.5975180
  90.0541592   5.2093696  58.3423901  88.6342193   5.5798244  57.9715586
  28.3790112  79.0698767  57.6808500  27.9835486  78.2366991  57.9370832
  27.7297378  79.4767857  57.1071768  22.6192621  84.3001825   9.6137821
  21.9761422  83.8585264  10.1683724  22.4997047  83.9075167   8.7490570
  56.9808245  90.9394932  74.8849058  56.1855793  91.2479687  75.3192568
  57.4873829  90.5215931  75.5813169 108.4523345   3.5733699  54.9684811
 107.6376868   3.0934047  54.8194265 109.1192628   2.8922080  55.0548601
  39.6303725  68.4635210  54.3022394  39.2414474  67.8852129  54.9583817
  40.5718422  68.4150076  54.4681168  83.5950614   8.7870693  70.1775837
  82.8033448   9.0347576  69.7000217  83.2729913   8.4148883  70.9985495
  91.3321114   1.2226104  85.0457001  90.9442187   0.3514861  85.1288223
  92.0795489   1.0971832  84.4610405  79.4111204  84.7333431  87.8357887
  79.5249939  85.6232738  87.5021839  79.9554729  84.1918278  87.2642326
  57.5266838 104.5752811  77.4677324  56.6480207 104.5479488  77.8464603
  57.8124905 103.6617756  77.4595547  71.2488080  13.0442809  76.6922140
  71.1596514  12.1700668  76.3127041  71.5343309  13.5941505  75.9625912
  61.8709707  76.6892481  69.7659540  62.2578955  76.3147688  68.9745760
  60.9356117  76.7469883  69.5710087  45.4172182  91.2374401  68.4886837
  45.8931398  90.6471157  67.9045105  44.5017099  91.1505032  68.2231283
  61.8294048 104.0730762  78.6644554  62.0696449 104.1904736  77.7453613
  61.2769032 104.8283005  78.8659525  29.5865822  80.6828785  72.7707100
  29.4862461  80.0058651  72.1015167  28.7850690  80.6261349  73.2908916
  89.9260617  19.6093845  74.7751284  90.1201392  19.1822147  73.9408064
  90.1526881  20.5283164  74.6321487  51.8717384 102.1717834  48.1264448
  51.2285089 101.4718151  48.2384205  51.8448639 102.6560307  48.9516783
  93.3182097   8.5740375  86.6742420  92.6869870   8.2389163  87.3110199
  92.9378415   9.3984126  86.3709927 111.9289876  18.5847091  56.9900751
 111.4723874  18.6931896  57.8243303 111.3273335  18.0691432  56.4530182
  64.5844341  13.7669277  66.7870760  64.9866296  12.9137897  66.6238976
  64.3721224  13.7570571  67.7203798  60.9185696  88.4185505  79.4162416
  60.6711674  87.4964237  79.3476009  60.2146769  88.8179779  79.9273396
  30.0202993  85.6952555  17.4375927  30.0523666  86.5952188  17.7620423
  29.6277335  85.1962454  18.1539070  13.5418036   6.2424755  53.7843704
  14.1363337   6.8890952  53.4040356  14.0778830   5.4563713  53.8886786
  40.1467803  34.9917395  20.4524052  40.5350593  34.1495306  20.2154171
  39.4822362  34.7736914  21.1059105  95.0999881  23.2027530  31.6564631
  95.0256396  23.1331062  30.7046986  95.9132243  23.6872577  31.7983603
 104.1662503  36.6937541  62.9772139 105.0637484  36.9916438  62.8289223
 103.6315776  37.2559356  62.4165773  82.4630595  16.6631698  73.5714245
  82.9524613  16.4374828  74.3624878  82.0497752  15.8425235  73.3031607
  43.4221077  89.6550274  61.9366455  44.1486120  89.0768623  61.7039394
  43.4679222  90.3662872  61.2977123  94.2555667   3.0886745  71.0210466
  93.3641148   2.7504444  71.1056089  94.5283414   2.8276348  70.1414537
  55.8311129  84.9359512  44.7382355  55.9471178  85.2947807  43.8584518
  56.6956139  85.0090408  45.1426268   8.8235571   0.1490974  69.3314171
   8.2503893   0.3947067  70.0576353   9.7090628   0.2474498  69.6813393
  65.3127241  77.8375101  84.3779087  64.5953989  77.7957630  85.0103092
  65.2079487  77.0496225  83.8445377  62.4576092 101.6580200  27.9218221
  61.5806484 101.2971592  27.7916288  63.0481672 100.9375954  27.7016759
  66.0489464 106.2736511  66.8882895  65.5320930 105.6842804  66.3389826
  65.8320570 107.1498203  66.5696573  54.7337532 106.7827225  35.1713252
  54.7951365 106.6373158  34.2272282  53.9286184 106.3347816  35.4308057
   6.7060282  17.7685928  71.5743017   6.0237887  17.1609306  71.2887716
   7.3616126  17.7372074  70.8775616  18.7406448  60.7667238   1.3784706
  18.1155208  61.4324839   1.6651833  19.5983079  61.1407263   1.5803730
  33.0204585  16.7602252  69.4413519  33.7763312  16.8071269  68.8559532
  32.7737620  15.8353614  69.4403458  16.2423566  50.7851965   2.8937447
  15.7786039  50.9861738   2.0808613  16.2842801  51.6209585   3.3584892
  84.9168301 101.8182850  63.5396576  84.6756744 102.3051548  64.3277121
  84.3872166 102.2095585  62.8449345 111.0141850  17.5916385  87.5191879
 110.4268123  16.9805145  87.9638767 111.5705109  17.9392909  88.2162380
  91.3576698  72.3615122  54.9140406  91.0494995  72.1759129  54.0270090
  91.5115643  71.4989805  55.2995062  66.2722588  92.4858379  15.5697823
  66.4893293  91.7712116  16.1684644  65.6843281  92.0894146  14.9268079
  86.6545868  78.3447409  87.4369526  85.9752464  77.6853800  87.5782681
  86.3332653  78.8657999  86.7011070  76.4793635   6.3887023  61.6466475
  77.0085026   5.7297325  62.0960855  76.6629673   6.2503147  60.7174683
  81.1331081  71.4365911  79.9855471  81.7199707  70.6813240  80.0228214
  80.2721691  71.0619736  79.7993374  63.4980869  73.9911366  47.1404934
  62.6387882  74.1558743  47.5286913  64.0938520  73.9449787  47.8882647
  99.4555664 103.7595367  73.4873056  99.4788742 104.1930294  74.3404007
  99.0065670 102.9304028  73.6521435  60.4315138  83.9690113  37.3578143
  61.1940861  83.3948898  37.4293256  60.4993343  84.3493366  36.4820409
  62.9629612  69.9565744  82.2395325  62.2510910  69.9002647  82.8769588
  62.5375748  70.2384186  81.4296913  80.6324196 100.8134747  52.9401255
  79.7890663 101.2418652  53.0866241  81.0219669 101.2948132  52.2101927
   4.6927741   2.3504638  76.2142563   5.3931906   3.0005550  76.2693548
   3.8858511   2.8636836  76.2557650  41.1734486  85.3962612  66.7012596
  41.4391804  86.2046051  67.1396685  40.6854153  85.6902409  65.9320831
  36.4718008  90.9853935  88.8111305  36.4501381  90.4893017  87.9928112
  35.6093884  90.8421612  89.2009544  74.8247576  96.0838795  52.5452805
  75.0004339  96.9023037  53.0095577  74.1070414  96.2962914  51.9486237
 104.3537188   4.4483566  55.4634190 103.6995793   4.1667842  56.1029911
 103.8433600   4.6995735  54.6935797  93.8906098  13.3559799  61.3900423
  94.4272710  14.1432666  61.2984037  94.1230679  12.8182125  60.6330729
  84.6104813 101.7286587  70.1234436  85.1426983 102.0170021  70.8649492
  83.7445927 101.5676785  70.4983521  64.8593807  85.3663635  59.3487453
  65.0723886  85.1159286  58.4497786  65.6412649  85.1396084  59.8522043
  90.1487446  84.2535686  75.7942438  90.8729172  84.8794651  75.7868528
  89.3635941  84.7965431  75.8646536  65.7783985  78.0159473  80.7297707
  65.6474209  77.7280188  79.8263454  65.5987024  78.9559221  80.7100105
   6.9770053  68.3026392  10.8917820   6.7442325  68.8637239  11.6315376
   6.3069251  67.6191027  10.8894741  82.7871227  86.6333103  72.3788548
  82.6152706  86.7935276  73.3067703  82.0055103  86.9571114  71.9311190
  71.5623451  30.8580684  75.2375937  71.9216753  29.9842929  75.3913307
  70.8262850  30.7131481  74.6430826   9.8239615   7.6969146  64.8824883
  10.6596568   7.5648116  65.3301382   9.7278693   8.6478519  64.8303652
  56.2698507  87.5988388  54.4746161  55.9516573  87.1638107  55.2656555
  57.1399117  87.9200172  54.7114038  92.0255566  14.2392253  67.4616766
  92.4433947  14.8267078  66.8319893  91.0872794  14.3766117  67.3313332
  44.2123127 104.5214367  58.0911636  44.4748068 105.3758430  57.7486563
  44.2782354 104.6138573  59.0416098  58.4024048  77.0248604  49.4526768
  58.0074549  76.7271328  50.2721977  59.2890692  76.6646194  49.4693613
  95.9413147  93.9110756  75.3989220  95.3899288  94.6215725  75.7266474
  96.7806339  94.0353775  75.8420038  86.2664319  20.4088210  86.8201065
  85.3677703  20.1867103  86.5765858  86.5943242  19.6270656  87.2645855
  56.4576483  92.8291702  22.5056887  57.0452785  93.5099888  22.1779466
  57.0401669  92.1772766  22.8954744  14.7516921   5.3400707  41.7065191
  14.5360568   6.1771011  42.1177435  15.1723483   4.8332977  42.4011087
  91.4264870  97.7147865  86.8630886  91.2628651  96.8975639  86.3923359
  92.3710537  97.7169132  87.0180893  20.4542258  29.6609210  74.4508076
  21.0942557  30.2667713  74.8243618  20.9821131  29.0099143  73.9884663
  93.1528521   5.7597732  84.7907829  93.2505847   6.4313411  84.1157436
  92.7027465   6.2053298  85.5084991 102.6835538  10.2366065  36.3177156
 102.1376134  10.8134078  35.7834005 103.4775830  10.7446670  36.4839387
  63.4180261   3.5649681  72.5130033  63.3334304   3.0418109  73.3101082
  62.7413560   4.2370414  72.5946760  60.9318066  74.8272228  48.3689642
  60.6054640  74.2478609  47.6804352  60.5927467  74.4494772  49.1804934
  59.9587584  93.8904190  57.3280573  60.7081556  93.3041859  57.2233534
  59.3367100  93.3917141  57.8577518  97.7209712   0.3429794  87.5516891
  96.8973399  -0.0842572  87.3164654  98.0302287   0.7334327  86.7342949
  83.7494469  83.5070229  84.8476696  84.5695496  83.0290604  84.9709702
  84.0087032  84.3193245  84.4127178  82.3793841  26.9364261  67.0921373
  83.0787135  26.9143199  67.7453470  82.0422126  27.8313636  67.1324110
  45.3549719  72.3448324  30.7663608  45.7740450  73.1940317  30.6268430
  45.3940964  71.9151735  29.9119043  57.9923630 101.9547653  77.0287752
  57.8817797 101.3947678  76.2603951  58.1432819 101.3442421  77.7503777
  90.2857352  17.9109191  43.9253426  90.9049989  17.7075672  44.6263361
  89.8013831  18.6713886  44.2467785  38.5546640  73.0323584   5.9087193
  38.5539916  73.0575926   4.9518501  38.5829070  73.9520533   6.1725533
  83.3309460  36.0719871  71.6544724  83.9546109  36.7966556  71.6083336
  82.7585889  36.2000465  70.8980083  23.2076505  73.2305319   4.3539059
  24.1487649  73.1635649   4.5152962  23.1027606  74.0609819   3.8895905
  93.6983538  11.3432311  80.1967621  94.1011859  11.2326240  79.3355274
  94.2026091  12.0448398  80.6087112  97.9711606  38.5909063   6.4432537
  98.0573274  38.1841642   5.5810654  97.0902516  38.9653761   6.4444649
  42.2434285  49.5455534   5.9992706  41.9775394  48.8945562   6.6486847
  42.9061654  49.1003210   5.4712689  12.5139764  17.1618015  10.5280602
  12.0135120  17.9179222  10.2213776  12.2449878  16.4466841   9.9514496
 111.5543080   7.6415824  68.2378817 112.1980191   7.1028709  68.6979485
 111.7939854   8.5417175  68.4582043  63.4469318  88.8135815  56.8079185
  64.3486595  89.0553284  57.0192862  63.4803629  88.5427189  55.8904457
  73.3507490 104.8641109  37.1250248  72.6328659 104.3914509  36.7037582
  74.0229368 104.9325180  36.4470053  71.7090034  87.7937412  44.8783398
  71.4511585  87.3259735  45.6726599  72.6654530  87.7559471  44.8779297
 106.2958670  20.1387119  67.8921223 105.6685973  19.8747730  67.2189999
 107.0604039  19.5838165  67.7378416   3.0402955  94.7987556  87.9402542
   2.1729431  94.8166752  87.5357628   3.6115354  94.4312191  87.2658443
  79.7074509   3.5378169  68.4760046  78.9061499   4.0604305  68.5078907
  79.6432830   2.9546070  69.2322969  30.1524308  66.6980154  19.4622624
  30.9180454  66.5422804  18.9092648  29.9132398  67.6085646  19.2892468
 102.2126389  44.9936771  82.5787926 103.0224849  45.4392433  82.8275013
 101.8862534  45.4909706  81.8288517  28.5823250  92.1095753  59.8980093
  29.2802358  91.9106102  60.5221558  28.2354021  91.2538433  59.6458149
  19.7001985  39.5960695  20.1450264  19.6646694  40.3175241  19.5169651
  18.9955571  39.7834665  20.7651817  54.0705347  81.1298752  74.8389673
  53.8769102  81.4627457  75.7152891  54.6363497  80.3727245  74.9899721
  12.4147704  24.4902133  81.3307190  11.6348364  23.9451408  81.2266254
  12.1163752  25.2392959  81.8465233  94.4691707  10.6325340  14.0891421
  95.1441623   9.9539375  14.0780222  93.9213086  10.4378890  13.3287513
  39.0662006  42.3931772   1.6148293  39.5798162  42.9508669   2.1991264
  38.6261991  43.0053026   1.0249722  28.1620791  17.3399352  20.8143735
  27.5765612  17.8847312  21.3403034  28.5491564  16.7294216  21.4418077
  66.0335255 100.7636929  80.8885288  65.2506208 100.2357960  81.0454178
  65.6962299 101.6212082  80.6294155  12.8458598  62.2098064  85.9933567
  13.5138991  61.5792941  86.2624931  13.3218386  62.8540325  85.4693031
  70.7332230  70.4360867  88.8063431  70.8110380  69.9281263  89.6139050
  71.3479090  70.0203609  88.2017231  37.7219844  90.6051254  53.9210129
  37.1954322  90.0678635  54.5128918  37.4034643  90.3808022  53.0466795
   3.1650021  38.6580467  88.5474396   3.5952237  38.5393047  89.3942261
   3.4604266  39.5175647  88.2471371  74.6210028  23.5033607  82.9841900
  74.4046069  24.4258308  82.8483391  73.7724424  23.0638408  83.0389690
  91.0657145  41.8722612   6.1459553  90.2852000  42.2468645   5.7376587
  90.7338347  41.1499388   6.6791832 111.1281730  29.3974494  73.3503056
 110.4729367  29.3691921  72.6530981 111.9184256  29.7278976  72.9230595
  87.7069331   5.3630638  60.1169300  87.8545190   4.5101642  60.5256081
  88.0610467   5.9936237  60.7440138 103.3897830  39.5447254  50.9651518
 102.6763440  39.3629550  50.3534365 103.8473130  38.7087345  51.0547352
  66.7320442 105.5185413  78.5872650  67.5444078 105.0222492  78.6872244
  66.9908047 106.4306164  78.7191629  99.4849349  20.3396892  64.3016195
 100.0899125  20.8534336  63.7665510  99.5449496  20.7306003  65.1732922
  23.9723638  54.7405035   7.3962414  24.5386270  54.1801626   6.8655884
  24.1180089  55.6220323   7.0528328   3.5408356  17.4200153  58.5270548
   3.3594801  16.6112804  59.0058899   2.7683260  17.5512313  57.9772902
  83.0520869  20.1835155  57.6016045  83.3495761  19.6227931  56.8851328
  83.0528403  21.0661220  57.2311544  74.1645647  38.9668941  81.5135288
  73.8145066  38.6186599  80.6935120  73.5483313  39.6552371  81.7638588
  33.7979987  45.6800444  26.6308891  33.6782602  46.6150934  26.7969238
  34.7317699  45.5880529  26.4415657 106.6176988  27.1474838  74.2093563
 107.2093774  27.2047138  74.9596071 106.6902114  28.0006694  73.7815094
  63.8997507  93.2694054  59.5473385  64.3667746  94.0794563  59.7521448
  63.9647675  92.7468014  60.3466463  62.9331207 101.4249039  60.7766438
  63.4164429 101.7999649  60.0404644  63.5508204 101.4519215  61.5073633
  68.7296247  99.6544361  72.2516680  69.6476650  99.4433498  72.4216175
  68.2784700  98.8112068  72.2924232 107.9763604   7.4823760  92.0062256
 108.4074450   8.0696105  91.3852978 108.6744929   7.2083949  92.6010132
  47.3717880  92.7792645  78.5179806  46.7129230  92.9718113  79.1851044
  46.9045734  92.8680134  77.6872826  40.6839514  82.6192474  78.7029076
  39.8757768  82.9994297  79.0472031  41.2518740  83.3720875  78.5388088
   6.6897825  59.4887049   4.6367752   7.3074582  59.4520933   5.3670990
   6.4611820  60.4152471   4.5626461 103.3008242  45.3063487  70.8139420
 102.5134517  44.7692298  70.9021568 103.9829160  44.6896362  70.5481529
 113.4507443  67.7538187  17.7282822 113.4532716  67.9959948  16.8022263
 112.6002933  67.3361284  17.8642952 108.2974196  18.8863181  80.6792831
 108.6042834  18.6274814  79.8103333 107.4929381  18.3840179  80.8086395
  66.6157103  98.4822559  70.0666809  66.0029316  98.2181549  69.3803978
  66.1473703  99.1559505  70.5596638  83.3917285  21.8995380  91.4869690
  83.1838370  21.0671710  91.0624790  82.7529145  22.5165653  91.1300087
 105.8513547   9.1016197  63.6514902 106.7525149   9.4217586  63.6108303
 105.6910802   8.7266635  62.7854919  80.2996255  15.5742359   0.7202945
  80.0053836  16.4849758   0.7062297  79.9997140  15.2127361  -0.1137332
   2.7843621  17.3528861  65.3881979   3.3102944  17.2732448  66.1839867
   3.1867554  18.0755710  64.9064922  31.5059519  76.5654421  65.2257824
  31.1138773  76.3311958  66.0669947  31.1837912  77.4493408  65.0492239
  71.0973787 103.2551193  53.3631659  70.9852839 102.6192951  54.0698481
  71.9944429 103.1187534  53.0583477  31.9234610 101.9951630  30.7973814
  32.5677633 102.7019310  30.8372140  31.5580916 101.9540501  31.6811490
  63.9905214  76.3049078  67.7702618  64.5552254  77.0505381  67.5668573
  64.5707512  75.6743622  68.1968498  95.1217128  13.4018707  81.3647747
  95.2801658  13.7310600  82.2495079  94.7209931  14.1385459  80.9033012
 101.0781241   9.9719810  40.5266428 101.5339995  10.0015163  41.3677931
 100.3071929   9.4289493  40.6909704  85.8611394   0.6590747  84.8615074
  86.1406327   0.3695583  83.9930058  86.6772509   0.7936668  85.3432465
  52.0047712  90.6923199  72.9327297  52.6226759  90.7166290  72.2020912
  52.3902369  90.0723839  73.5518694  87.5670005  24.3361377  70.4787064
  88.0789281  24.2368984  69.6760130  86.6714288  24.4840145  70.1748753
  10.5866053   2.4656486  81.7833138  10.1420214   3.0667591  82.3810101
   9.9588396   1.7561626  81.6463280  26.3922119  86.5177155  71.0836506
  26.3126540  86.9854736  70.2523232  25.7179976  85.8395100  71.0423470
  79.7827339  98.9073658  39.0209436  79.2545033  98.2636547  39.4930029
  79.7127342  99.7052860  39.5450139  54.2940187 104.6884441  91.8788433
  53.5408497 104.1553497  92.1333599  54.6796703 104.2201424  91.1384392
  65.0769186  98.8984966  78.1206036  64.8213959  99.7053146  77.6734161
  65.8069515  98.5587025  77.6030827  66.8960691  10.3939437  73.1425476
  66.7965222   9.5625400  72.6787758  67.8391028  10.5580043  73.1403542
 105.0239802  32.0788097  72.1394730 105.7066108  31.8841457  71.4973259
 104.3054295  32.4427509  71.6223049  97.2657681  11.8453311  72.1257830
  96.8640948  12.6963996  71.9509459  97.8218175  11.9954490  72.8903151
  57.6015139  98.9461708  40.5971718  58.0260849  98.1130409  40.3925514
  56.6717720  98.7300110  40.6685543  49.8231125 104.6142769  85.6009960
  50.0174332 103.8192940  85.1045418  49.1589212 105.0656223  85.0800705
  81.4925385  96.4742374  62.7006769  80.6648540  96.0161877  62.8467894
  81.9722557  96.3700294  63.5224152  62.0902777  86.4970684  50.8722687
  61.5459394  86.6430283  51.6459799  61.5548944  85.9435940  50.3037071
 107.4399640  58.0658514   1.0938465 108.1260039  57.4369699   0.8700478
 106.8027546  57.9879553   0.3838265  56.4913059  36.2611007  73.6500597
  56.9645024  36.8421840  73.0545235  56.4534534  35.4237270  73.1878948
  62.5810099  72.3063374  50.8315372  61.8343163  72.7930546  51.1805201
  62.2007084  71.7223358  50.1753807   4.6584895   5.6781768  65.8117199
   5.2307990   5.7543754  66.5751886   4.9198058   6.4025974  65.2432442
  23.2208037  73.6416245  66.5768337  22.8579354  74.5271635  66.5961885
  22.9895306  73.3068943  65.7104015 110.0586940  24.1611099  56.3760090
 109.8965407  23.3180904  56.7993927 110.9744359  24.3566322  56.5745592
  80.7766247  83.9203835  78.2878351  81.2303066  83.2022858  78.7291241
  79.8472691  83.7150669  78.3896589 110.3273011   4.3657112  30.1018095
 110.6679870   4.7238731  30.9214997 110.9009600   3.6244869  29.9075627
  54.0458679 100.8391190  58.3241796  53.8776112 101.5633392  58.9270353
  53.2572699 100.2987766  58.3728981  74.9838877  68.2597160  73.9928722
  74.7534037  68.2605934  74.9219131  74.1530228  68.1151533  73.5401106
  90.5792904  77.1839428  20.5565834  91.0526466  77.4116611  19.7563875
  90.7461929  77.9160833  21.1501718  77.1552801 105.2776909  64.6300268
  76.4153099 105.6004429  65.1443243  77.6243639 104.6935081  65.2257824
  76.0864426  31.8038272  59.2198896  75.4339696  32.1164321  58.5931587
  76.4344979  31.0045242  58.8246632  79.3673038  92.9682636  79.2453337
  80.3133965  93.1093597  79.2103243  79.1810656  92.8223324  80.1728344
  74.1681720   1.5433216  79.0535307  73.7582804   1.8815326  78.2573938
  75.0924612   1.7756175  78.9643097  69.2492437  97.8840160  82.7890587
  68.4226179  97.4162769  82.9079437  69.7915554  97.6030922  83.5260868
 111.5891028  37.4443721  65.8946419 112.4210358  37.0077514  66.0776234
 111.5136672  37.4258899  64.9406004 112.0478202  31.8103218  87.6057434
 112.6879311  31.4134216  87.0150089 111.5499068  31.0697174  87.9518986
  64.9761248  99.2502403  64.9795723  64.3723249  99.9900913  64.9141741
  64.4113350  98.4931374  65.1346397 112.5682926  86.1788654  90.3706074
 113.4753704  85.8857441  90.2838421 112.2769642  85.8123207  91.2054729
  56.2638429  48.9627344   2.6419651  56.0366109  48.0496580   2.8177559
  55.7225087  49.2038233   1.8902599  69.4477701 101.3576794  86.9896507
  69.1541815 100.6331444  87.5419903  69.9967623 100.9438992  86.3236046
  57.1223211  97.3873329  71.8146753  56.7871237  97.1690655  72.6842928
  57.8710747  96.8035316  71.6931248  81.0890294  10.2015209  65.7675934
  81.5112258   9.3880176  65.4915667  81.6596461  10.8931636  65.4325485
  56.9134378  71.6798115  51.0009480  56.6530943  72.3524046  50.3716087
  56.0871744  71.3466358  51.3509703  92.0071030  24.3921852  68.8654613
  92.4315787  23.9243125  69.5845985  92.0449639  23.7830829  68.1280375
  80.9892178  96.7089462  90.8928013  80.6953144  95.8491421  90.5918312
  80.5984306  96.8051529  91.7612934 111.4815141   4.2059898  21.7832327
 110.6940366   4.7280406  21.6296840 111.1528970   3.3279704  21.9764519
  71.2821198  84.5698643  45.7472086  71.1036205  83.7401581  46.1898756
  71.2201834  85.2285576  46.4389467 109.8492099   0.2772617  87.0719242
 109.4841481   0.1554584  86.1954975 109.2987729   0.9522342  87.4689865
 104.3998814  11.8055248  58.9056778 103.5313845  12.1491527  58.6962461
 104.3864776  10.9056949  58.5795403   9.2267611   6.3303470  34.6581316
   8.3047869   6.1959361  34.8775244   9.7006514   5.7375621  35.2414608
  16.3299945  33.1861956  21.7442810  16.9142583  32.7045328  21.1587345
  16.5907434  34.1016085  21.6429817  73.2846355 105.2118301  30.8934593
  73.5059071 104.2938423  30.7366991  72.4767494 105.3512096  30.3993654
 100.1612283   4.1433238  74.5476723 100.4767371   3.7446403  75.3586817
  99.2116404   4.1914939  74.6580887  24.5021441  24.3353080  52.2157192
  23.9661314  23.6566638  51.8053865  24.5768549  25.0175476  51.5484858
  71.3899113  14.7904205  39.6058822  71.9250155  15.4806613  39.2141342
  71.1471439  14.2287254  38.8698173  23.8544324  72.1996672  14.7165692
  24.2185024  73.0848772  14.7258198  24.3600610  71.7258245  15.3769028
 104.2260791  41.8179511  52.6832676 104.2185069  41.3482952  53.5172939
 104.0198136  41.1493968  52.0300341  62.9471970  30.8525085  80.8023643
  63.3806945  30.2473926  81.4041519  63.4496690  30.7839870  79.9905443
  87.9902744 105.3343582  66.6404581  87.7126694 106.2326145  66.8201733
  87.1875000 104.8833656  66.3789272  27.5188351  82.7787304  61.9896507
  26.7831755  83.3154202  61.6946888  27.1519542  82.2293568  62.6823473
  62.5594139  96.1990166  51.1658812  63.1904793  95.5172157  51.3963747
  61.7048168  95.7852650  51.2871218  14.0828707  13.8866996  90.2293110
  14.0312579  14.8222160  90.4251766  14.2835715  13.4765720  91.0705948
  79.9889040  85.5756855  39.5276928  79.1980886  85.1969528  39.9116206
  80.6731987  84.9297047  39.7028160  17.1362975  37.2491931  65.3525019
  17.3538878  36.9567680  64.4674158  16.3378146  37.7659130  65.2445078
  74.3618298  62.0236444  40.8511925  73.9342928  61.1681795  40.8914757
  75.1079273  61.9467640  41.4458847  55.1081085  93.6106873  72.4290085
  54.3357277  93.9333820  72.8932524  55.8333921  94.1238976  72.7851105
 109.1891576  21.5498542  57.3747110 108.7530948  21.2572765  58.1750107
 108.7295199  21.0924911  56.6705942  53.9474678  91.3922405  49.5441198
  54.5502710  90.7935524  49.9850655  54.3095350  92.2625065  49.7108030
  77.4198103  86.8247032  69.7136068  77.3276663  86.6262913  68.7817383
  76.9413805  87.6452255  69.8322296  67.6008129  96.6065216  66.8058491
  67.9307556  97.1382713  66.0815477  68.2827806  96.6637993  67.4750805
  50.1158381 101.5259075  52.0785666  49.7280264 100.7419205  52.4674177
  49.4916534 101.7922878  51.4035368   2.6718047  14.9411773  77.9994440
   2.4011376  15.8540630  77.9013443   2.1742251  14.4706439  77.3306847
   4.4385054  27.2625160  42.2897673   5.2046492  27.1219730  41.7334318
   4.0127852  28.0360698  41.9201660  86.6617061   8.9571762  61.3550568
  86.1750413   8.8637542  62.1739960  86.9135285   8.0633830  61.1227894
  99.7418214   2.1197128  72.2238111  99.2042256   2.7589511  71.7562675
  99.6925498   2.3902320  73.1406689  48.1424382  43.9350969  10.6674015
  47.3593477  44.3298227  11.0510742  48.8124421  44.0247900  11.3451111
  91.3583232  10.5275249  77.3949575  90.4704619  10.1738071  77.4480247
  91.2451411  11.4049339  77.0294857  55.5386782  91.1790943  57.4953127
  56.1987305  91.5744877  56.9259024  56.0072327  90.9867668  58.3075285
 100.1839496  38.1893157  53.3322048  99.5203448  38.2696056  52.6470613
  99.9113704  37.4259757  53.8413763  90.4489995  12.3759651  85.1699734
  90.6815673  12.9007053  85.9359932  89.5962096  12.7147293  84.8975372
 101.2471391  11.5580844  34.3019271 101.4740134  12.4174213  34.6573210
 100.4019500  11.6918468  33.8729715   5.9122755  32.9588985  74.4644642
   6.3178542  33.7132644  74.8918581   6.5649035  32.2625255  74.5378542
   8.9733221  21.9984912  55.8544207   9.7402575  22.1030235  56.4175415
   8.5833552  22.8718185  55.8162880 100.7987500   9.8932361  59.2668104
 100.1607848  10.1361656  59.9377966 100.5373383   9.0134143  58.9951372
  77.1282053  74.8511791  11.5236449  77.7048302  74.1729832  11.8754756
  76.2655973  74.6415567  11.8816960  92.1738435  27.8264427  65.4687929
  91.6808558  28.5677242  65.8204985  92.3962594  28.0888938  64.5755482
  98.7048579  39.0925311  83.3266926  97.8669883  39.1712951  82.8706169
  98.5896636  38.3437156  83.9116955  87.4664689  20.3124904  30.0278139
  86.7697669  20.8783054  29.6951103  87.0089913  19.5422649  30.3649926
 111.2091399   3.3947276  64.8443317 110.5294801   2.8142356  64.5018101
 110.7405711   3.9977931  65.4213810 102.9941560  15.5390644  53.2334232
 103.4702636  16.0759258  53.8669348 102.5350619  16.1714458  52.6806545
  64.7130442 105.8239555  32.2332215  64.1439867 106.0887623  31.5105295
  65.6004524 105.9661961  31.9038177  17.3807146  17.4855899  64.5815086
  16.4582541  17.3389244  64.3722677  17.8583052  17.0650863  63.8664389
  14.8199942  18.1175041  43.0269670  14.8323824  19.0330505  43.3060074
  15.7038882  17.9556465  42.6971817  93.9322472   7.1267986  21.7346430
  94.3833686   6.8510150  20.9367347  94.5001841   7.7993488  22.1106172
  76.6187954  83.9197540  86.4739704  75.8515596  83.6449242  86.9760227
  77.2604561  84.1741085  87.1371555  85.6565380  98.0746746  55.6910419
  84.7512245  97.7868080  55.5737257  85.6560802  98.5292339  56.5334272
  88.6015082  42.4882984  80.2262688  87.7704144  42.1352863  80.5439186
  89.2656899  41.9061660  80.5953407  86.2814475  15.1545810  40.7263756
  86.1769200  14.3237686  40.2626276  86.4157821  14.9035167  41.6402435
  86.0535146  15.3318786  73.9665794  85.6446792  15.6707382  73.1701756
  86.6380072  14.6388339  73.6595154  50.3932190  99.9578094  36.3873076
  50.0046730  99.2019463  35.9469271  50.2678394 100.6825066  35.7746696
  56.5964317 103.7119102  68.7197447  56.2006903 104.4280338  68.2229662
  55.8964062 103.0648041  68.8060713  94.7546483  27.9810142  66.6962576
  93.9058972  28.1291294  66.2792301  94.8215915  27.0291423  66.7716885
  37.4006370  73.6556608   0.3347885  37.5608829  74.5700437   0.5681431
  36.5863136  73.6759359  -0.1679027  95.0243855   9.2075538  82.2431946
  94.5375586   9.8331546  81.7066765  94.4020940   8.4995269  82.4095821
  74.5710897  89.9920082  32.4043989  74.8549938  90.9013844  32.3113084
  74.4806767  89.6760941  31.5053678  88.3060074  90.7732677  36.3504457
  88.0225277  89.8663139  36.2351012  88.7291241  90.7846165  37.2089815
  75.0950623   2.8917217  67.4085474  75.9592081   2.9392719  66.9996166
  75.0211144   3.7052249  67.9075193  72.7066326  81.9664478  59.9790192
  72.7740383  82.4149513  60.8219528  72.2929382  81.1284447  60.1859903
  88.4999324  15.9077835  19.9507380  89.4246436  16.1249923  20.0688863
  88.0609322  16.3150310  20.6975079  53.1682158  96.5233135  72.6779222
  52.9216480  95.6979847  73.0953741  53.7996912  96.9169807  73.2800055
  83.9151478 106.0727215  79.5495701  84.1646290 106.9448376  79.2439556
  83.3295536 106.2364101  80.2888393  98.1352759  22.4129772  63.1427813
  98.5534144  21.6140079  63.4637833  97.1975184  22.2496890  63.2436800
  18.9735961  98.7699699  58.3194065  18.9678514  97.9724312  58.8486814
  18.1072485  98.7940216  57.9130840  91.6901494  36.8172264  85.8078575
  91.0027505  37.4575138  85.6241703  92.4871446  37.2139072  85.4561996
 102.0859242   0.2428340  78.5837173 102.7858449  -0.4026127  78.4850407
 101.5727282   0.1644706  77.7795315   5.7059863  16.6696548  86.6038322
   5.2814963  15.9662246  86.1126900   5.4989054  17.4641323  86.1117363
   8.4095290  16.2404727  91.7458248   9.1439154  16.2837791  92.3582363
   8.7943366  16.4512538  90.8951092 106.1614562  17.9824542  91.3433552
 105.7805158  18.4321880  90.5891323 105.4601241  17.4148940  91.6631222
  67.9911566  89.2343044  22.2015667  67.0386982  89.3272495  22.2218370
  68.2214451  88.9356899  23.0813551  14.3205359  24.1365623  57.4495268
  13.8498785  24.1027927  58.2823324  13.6798670  24.4786739  56.8260431
  15.7471087  30.1710510  68.8608313  16.0237029  31.0755157  69.0080500
  16.5028193  29.7537898  68.4472752 103.7303019  22.4980735  53.0397844
 104.6277667  22.7659892  53.2372952 103.2420112  23.3194446  52.9835939
  58.3045912  93.2236195  59.8152304  58.9257431  93.0703449  60.5272055
  57.7976370  92.4135017  59.7610998  73.7240362  86.6190815  58.5798836
  72.9040384  86.1314869  58.5019159  74.3352032  85.9980965  58.9762163
 110.9101392  13.8274669  67.5273132 111.1843444  14.6814632  67.1930456
 109.9626590  13.8103961  67.3923349  91.7892551  78.8466263  81.9193840
  92.5147724  78.8669825  82.5434494  92.1547699  79.2149925  81.1150646
  93.0456639  13.0991554  40.4997396  94.0025473  13.0795097  40.4849768
  92.7909900  12.2021484  40.7159376  78.3550167  90.2698708  70.1938486
  78.2105064  90.0750065  71.1197948  78.6627150  91.1762238  70.1850128
  90.8954335  28.4920692  41.3409615  91.4423896  28.6815357  40.5786180
  90.0112582  28.4031104  40.9852171 105.2319575   0.6578159  63.8755226
 106.0603190   0.7049655  63.3982134 105.1598693  -0.2592469  64.1401434
  71.5258789 103.0626678  85.2601242  71.3508749 103.5780907  86.0474873
  71.2850380 102.1681213  85.5010128  43.3285669  44.9210817  34.4955361
  43.7551263  44.3181497  33.8866341  43.5343412  44.5713694  35.3624832
  17.3796999   6.7513114  36.5905166  17.9421389   6.6538507  37.3588896
  16.4934981   6.8072748  36.9479322  84.1034261  86.9717694  56.5152931
  83.7029711  87.7577007  56.8870163  85.0071529  87.2277368  56.3309288
  22.2682881   0.7774699  51.3177967  22.0939350   0.9932029  52.2339296
  23.1689978   1.0662558  51.1709642  94.7990033  77.6474207  89.3691629
  95.0398299  78.2996839  90.0270281  94.0533683  78.0341738  88.9101628
  44.0209484  23.6951661  12.2094786  44.6885777  23.7488222  11.5256500
  43.2805061  24.1915441  11.8607831 103.1009565  23.8247108  70.5090666
 103.4942077  24.6325564  70.8391762 102.7582882  24.0600514  69.6468496
 104.1794132  11.6738594  38.8034487 103.8936357  10.7667375  38.9115834
 103.8216858  12.1300840  39.5651054 111.1517645  21.1406565  88.2508278
 110.5240475  20.4314804  88.3896446 112.0001242  20.7562375  88.4715939
  87.3391113 102.8589422  49.3601084  87.5696764 103.7596056  49.1323423
  87.7463481 102.7162156  50.2145195  14.6317899  40.4775763  25.4209995
  15.4673815  40.9033585  25.6126475  14.7950029  39.9792767  24.6201921
   0.1190225   5.8538640  69.3750715   0.3758607   6.0652530  70.2726126
  -0.2052533   4.9546084  69.4242239 102.2877214 103.1192354  85.1082611
 102.6527426 103.9934409  85.2452087 101.4556119 103.2744426  84.6613407
  26.3046789  31.7822981  77.0377874  26.0170698  31.1714911  76.3592386
  25.7795691  31.5530777  77.8045654  48.6740446  49.7253609  32.7280593
  48.0998850  50.4183960  33.0540514  48.8635492  49.1893291  33.4981179
   9.1086102  47.6187658  55.4038763   9.5217597  48.2649088  54.8311281
   8.1793153  47.6577282  55.1777697  69.0581737  81.5129328  37.1501637
  68.5961685  81.0454393  37.8460336  69.6392349  80.8566523  36.7655897
  21.6625381   5.1915687  88.1671047  20.7211161   5.3273362  88.2744694
  22.0379591   6.0709482  88.2116222  27.2506285  30.1101947  67.8076220
  28.1293344  29.8257470  68.0590153  27.3244667  30.3218341  66.8770361
  19.2148817  41.5164328  75.5517721  19.2462802  41.0359526  74.7244930
  18.3301973  41.8804836  75.5838776 106.5318391 100.4307175  89.1439724
 105.7232401 100.8802599  88.8983822 107.1643946 101.1352558  89.2844391
  68.3592034  46.7022343   1.0390484  68.9742494  46.4575363   1.7304718
  67.7103902  45.9984876   1.0355580  91.6502570  27.4270678  69.0588665
  91.8780683  26.5062094  68.9309740  92.3962711  27.9099822  68.7032127
  95.3872298  15.1715624  67.3531294  94.5924328  15.6118119  67.0519495
  96.0369931  15.3607464  66.6761923  95.5098782  38.9296508  42.3995113
  95.5496262  38.5191655  43.2633114  94.8526369  39.6193552  42.4920988
 100.6822560 103.8178802  49.3077993 100.8253453 104.7593231  49.2106247
 100.1532338 103.7366772  50.1013803  32.2057915  28.6447358  72.5279951
  31.2814593  28.6127567  72.7746153  32.1973610  28.6814356  71.5715361
  24.8399377  42.2620678  55.0120497  24.0040278  41.9711065  54.6475935
  25.2770758  41.4547634  55.2829885   4.5658001   9.7728503  59.5102739
   5.2607667   9.5704550  60.1366043   4.0776488   8.9542925  59.4213724
  90.9228609   0.2994918  76.9930696  90.4844974   1.1317709  77.1702194
  91.7666195   0.3735331  77.4389648  13.5795927  22.4822259  77.7670097
  13.5812128  23.2946396  78.2731867  13.6412537  22.7678251  76.8554974
  31.5087414  41.1988354  87.5488758  31.4620948  41.3741970  86.6090298
  32.0960903  40.4466963  87.6233196 108.8103886  17.6613927  20.3126311
 108.3224098  18.4194231  20.6343436 108.8653801  17.7958810  19.3665242
  99.5071552 102.8782577  46.4158440  99.8029659 103.7877095  46.3755226
  99.2056129 102.6848987  45.5281973  21.5033925  74.0079434   6.7685520
  21.2108816  74.9152334   6.6819966  21.9122971  73.8067873   5.9267819
   4.2853916   0.4789834  70.1899290   4.5263115   1.1795482  69.5837927
   3.5526246   0.0347108  69.7634220  29.6622658  25.4773498  49.6416140
  29.9218822  26.3986254  49.6504831  28.8633728  25.4485583  50.1680851
  29.4676065  16.3192928  55.2731991  29.8561764  15.4535270  55.3984833
  29.4052505  16.6838682  56.1560488  20.7891703   4.9597856  34.6016073
  21.3845587   4.2926157  34.9431205  19.9740982   4.4881701  34.4299436
  82.7219198 101.9006706  77.6551342  83.5126922 101.8996159  77.1157742
  82.1209130 101.3107104  77.2001934  91.5274570  84.3613840  28.1071138
  92.3640893  84.7890258  28.2898712  91.2215564  84.7698260  27.2972798
  12.9786563  15.1520836  70.4900837  13.0653405  16.0736084  70.7340336
  12.8433478  14.6961296  71.3207674  16.5642822  25.2084231  52.2010851
  15.8284187  25.7992959  52.3611069  17.2593319  25.7761717  51.8682194
  91.2520884  32.1732569   5.1899230  92.0685242  32.4530745   5.6038862
  91.2041400  31.2335849   5.3658420  39.3367529  12.7404594  60.0063038
  38.5249233  13.1182134  59.6679783  39.2336297  12.7639699  60.9576416
  99.7868226  77.2674108  50.6892395  98.9113972  77.6106358  50.8682775
  99.9161360  77.4177528  49.7528028  11.9280887  20.3566241  64.5085955
  11.7415845  21.2339520  64.8428774  12.4892819  19.9605894  65.1752663
  10.1320933  89.3873716  71.6669655   9.3076896  89.8506559  71.8151569
   9.9601173  88.8290191  70.9087467 111.5989882  35.3683734  84.2117310
 111.1890951  36.0240126  84.7759628 112.4810844  35.7052612  84.0547466
 107.8421096  40.1872158  37.0227885 108.2231073  41.0109472  36.7185831
 108.5793845  39.5772934  37.0482516  25.9377003   5.7668924  57.3668051
  26.2380362   6.4695674  56.7903662  25.7364607   5.0415665  56.7755032
  81.6220055  95.3781629  72.8219700  81.1836777  94.5637322  72.5753927
  82.5451127  95.2235461  72.6214743 102.4488661 106.5021985  65.0026655
 101.5450046 106.8007423  65.1033449 102.5744388 105.8744586  65.7142878
   6.8909794   5.7527453  54.0651512   6.1604846   6.3160551  53.8096285
   7.6212800   6.0455245  53.5200119  81.8448267  90.8600271  31.5947914
  82.4152169  91.1118138  30.8685064  82.3917172  90.3001452  32.1458578
  35.5554128  37.9961419  50.2194643  36.1609316  38.3584571  49.5727015
  34.9902463  37.4098611  49.7163820  12.6999711 105.9401191   6.6884607
  13.1101083 106.6802220   6.2409472  12.0211076 105.6408349   6.0836399
  96.0374496 104.1519937  80.7436848  96.2567279 103.2294852  80.8745480
  95.0857554 104.1597951  80.6414604 101.0433589  25.8510590  36.9133329
 100.1199864  25.7864380  36.6695356 101.0574959  25.6592202  37.8510070
  92.7469573  66.3895369  35.9104609  92.9494176  66.6688967  35.0176001
  92.9159663  65.4473734  35.9107709  82.9054974  17.3675847  45.4706192
  83.0807827  18.1419718  44.9359894  83.5217427  16.7097247  45.1486063
  71.3794968 101.2734300  61.6401339  71.4176235 101.7049653  60.7865810
  70.7706181 100.5457634  61.5136433  99.7299311  89.6221376  55.2276087
  99.9123142  88.7209905  54.9613380 100.5922267  89.9999250  55.4006863
 105.1475881  23.3896613  16.0158300 104.5890288  23.5609746  16.7740488
 104.7508399  22.6278901  15.5933058  23.6016798   4.8667786  49.3475103
  22.9071236   4.8441133  50.0057745  24.2110133   4.1801196  49.6185160
  99.7316001  96.6941417  47.6185560  98.9483187  97.0471812  47.1965837
 100.3246591  97.4423606  47.6869965 106.9261955  22.9238677  54.5020103
 106.4389364  23.7423372  54.5964622 106.7483424  22.4444985  55.3112125
 111.9475648   1.9586314  29.8836780 112.2061959   1.6842261  30.7634759
 112.3522347   1.3141048  29.3031096  12.9936981  27.4570131  49.6286821
  12.3142147  27.2272182  48.9948606  13.4923315  28.1544232  49.2029858
  88.7460183  39.4815969  73.8345671  89.5105313  39.2567325  74.3648386
  88.4422539  40.3152561  74.1936874  11.3165355  25.3324795  43.0274439
  11.1092985  24.4531989  42.7109814  11.5212047  25.8299375  42.2356892
  71.3078974  10.0258291  22.8883147  72.1267079  10.2874482  22.4671984
  71.5711401   9.7263646  23.7585211 106.9596545  21.4892864  14.8321021
 106.4441411  21.9634604  14.1796935 106.7520986  21.9206309  15.6610143
 103.7845729  17.1523762  58.1963682 103.2334398  16.3787258  58.0782652
 104.6579830  16.8675494  57.9275560  75.5908923  98.5485495  63.4976959
  74.7886080  99.0301502  63.2961226  75.6606770  98.5879934  64.4515371
  68.0723397 103.8603029  88.2609940  67.5075630 103.5686103  87.5453281
  68.9452980 103.5517035  88.0182076  57.9134080 105.4036369  60.2031517
  57.1467767 105.9266796  60.4375315  57.6315460 104.8919798  59.4448709
  68.9636419  99.4661183  24.3789268  69.3469164 100.3149164  24.6000004
  68.2419089  99.3604816  24.9987459  18.2217419  25.3596425  40.8863449
  18.2597840  24.5487547  40.3791523  19.0544200  25.3866291  41.3576746
 102.9541752  93.4973586  50.9074545 102.4276564  93.9725543  50.2646494
 103.7902782  93.3453918  50.4669189  17.5917673   9.7609979  66.1516905
  18.1900024   9.5798194  65.4267597  17.2086644  10.6120372  65.9390974
  33.6244822   1.9787729  39.7361422  34.3042779   2.6447624  39.8389459
  33.7309933   1.4083119  40.4973650   7.8992999  45.7043409  71.2599754
   8.3230853  46.4260054  71.7245531   7.2043848  46.1221886  70.7513189
  47.4491742  69.9896079  91.0719756  47.2476974  69.0570360  90.9948562
  48.1350407  70.0321644  91.7383144  79.9981354  17.5354493  62.7959538
  79.9198793  18.3787775  62.3499680  80.9048770  17.2681916  62.6455402
  43.0899525  19.0868843  60.4417181  43.0550051  19.1134834  59.4855261
  42.9924393  20.0003934  60.7104588   3.8843399  11.1059189  26.8466902
   3.7670067  11.2941360  27.7778387   4.7139412  10.6306136  26.8010902
  22.4657893  55.6573629  57.3739386  21.6902232  55.7748842  57.9225016
  22.1239257  55.3253365  56.5438080 112.2792004   5.1260298  77.2050571
 112.2816867   6.0737848  77.3391724 111.4919178   4.9595493  76.6866922
  24.1118097  24.2063999  56.6028547  23.3707452  23.9588737  57.1558380
  24.8568773  24.2420745  57.2027159   7.5916588   8.1050318  43.3826113
   7.2423297   8.5308069  42.5997210   8.0918223   8.7907344  43.8251925
 107.9381607  34.7708583  57.0612907 108.6836396  34.1860533  57.1972895
 107.9224549  34.9231267  56.1164093 109.0914406  19.0045261  67.7998209
 108.8436352  18.7561893  68.6904144 109.7535674  18.3610916  67.5472116
  17.2031271  12.1116781  44.3872929  17.6146579  12.5977933  45.1018333
  17.9340374  11.8297958  43.8372517 108.9313123 101.4712090  38.6751437
 108.7728498 101.2986339  37.7470613 108.0868886 101.7726303  39.0102983
  39.2189288  21.1406446  61.1293793  39.0942860  20.3402853  61.6393995
  39.4802117  21.7975950  61.7746544  18.0662870   7.5362879  56.6740274
  17.3780739   7.8814554  57.2427607  17.5974679   7.1833658  55.9177971
  11.4580476  18.1106246  44.4964027  11.1170137  18.7025630  43.8259268
  12.2416234  17.7278185  44.1018105 109.8762192  20.2031732  28.7947893
 109.6272378  19.7907329  29.6219134 109.4777863  19.6507776  28.1222248
  70.9065054  99.9874116  68.3225012  70.0678883 100.4488791  68.3219910
  71.3065905 100.2185929  69.1607809  48.7318347  99.4471837  61.3909912
  47.8725216  99.3978131  60.9722137  48.5483930  99.7551042  62.2785568
  18.7928414  15.8636034  48.8064766  19.6021521  16.1561275  48.3873367
  18.3636475  16.6713738  49.0884876  43.6677599   3.2378870  59.2395449
  43.9493752   4.0939733  58.9169931  44.0206623   2.6147085  58.6044550
 110.5496840  21.5543556  40.1496077 110.7527091  22.4686742  40.3471851
 109.9519189  21.5976262  39.4032598  14.5864117  23.7365150  44.8780870
  14.3728113  24.2026782  44.0698195  14.3841231  24.3605828  45.5751181
  42.6140738  31.5729570  55.3621960  42.1122599  31.6321802  56.1751604
  41.9528723  31.5952682  54.6704292  26.2501812  39.7146559  38.2098460
  26.6724420  39.4452929  39.0255475  25.3243065  39.5098877  38.3404613
  10.4620588  26.8144202  58.5645056  10.7507896  26.0980439  59.1299009
  10.8833289  27.5924826  58.9297199  94.6639179   5.4063570  72.1501303
  95.4296254   5.7371640  71.6805649  94.3928264   4.6347764  71.6527319
   2.6132074  11.5376246  56.3193083   1.7282639  11.1744225  56.3538265
   2.9893607  11.3337171  57.1755600  37.5352812   5.1128381  28.8386512
  37.2927403   5.8128750  29.4447494  36.7408967   4.9506310  28.3298540
  94.8312710   0.8332575  55.6245518  95.3299151   1.4456487  56.1654425
  95.2926002   0.8239747  54.7859097  87.9694985  22.6808763  81.7017555
  87.6767205  21.8065429  81.9587612  88.2436012  23.0922437  82.5214386
  95.5049274  86.7117453  42.1796560  95.6517050  87.1133352  41.3232613
  94.6158228  86.9742156  42.4180555  34.6245537  78.9668567   9.6366226
  34.1077695  79.4793470  10.2583325  34.7327877  79.5448668   8.8813603
   4.9296093   1.7038797  41.7078781   4.5343989   2.1987334  42.4256229
   5.6632400   1.2404556  42.1119261   6.9962019  15.2908695  70.0621653
   6.9873089  14.3353438  70.1180601   7.2890198  15.4758799  69.1698313
 107.7503655  65.7666445  13.4586823 108.0496762  65.8693171  12.5552976
 108.5490725  65.8216572  13.9833438  14.9295163  33.7110090  66.5557957
  14.1119659  33.2392335  66.7147589  14.6755850  34.6338677  66.5464926
 111.3361898  38.8572240  56.9908667 110.8315651  38.8370419  57.8039932
 112.0025794  39.5281744  57.1391296  45.6385517  61.7711735  57.8751707
  45.9072924  62.4295855  58.5158730  45.3776550  62.2778368  57.1061087
 106.0417579  10.0377584  45.3863287 106.1851601   9.1578525  45.0378561
 105.6360875  10.5180502  44.6645355  31.3794565  22.1444464  42.0162725
  32.0575929  22.5654483  42.5445938  30.6070924  22.1345639  42.5815916
   6.6920799  23.3435583  11.2179375   6.6395360  24.1462493  10.6991327
   6.8142575  22.6481867  10.5715919  82.6797370 105.2879768  73.3194447
  82.8591487 105.3790524  74.2552567  82.1103433 104.5209826  73.2582664
  48.9025879  27.7179790  78.6623716  49.5060253  27.9902291  77.9710150
  48.0418301  27.7204370  78.2436514  29.7174621  42.6899147  46.5008926
  30.2053213  42.3338556  47.2434855  30.1891303  42.3733139  45.7304859
  26.5754987  84.3559511   5.1289475  27.1853126  83.9150054   5.7204926
  26.6621650  85.2845843   5.3442490 105.7308981  98.5976893  56.7736292
 105.6473706  99.5505620  56.7377424 106.6317461  98.4468389  57.0598984
  85.4831935  72.4587555   2.4555790  84.5902062  72.7799137   2.3304093
  85.4392911  71.5316339   2.2215950 100.8781658  41.7646122  47.9853725
 101.2029837  42.1809626  48.7837315 101.5594076  41.1349583  47.7494049
  23.0496979  37.6299047  31.6980624  22.7239609  38.0825877  30.9201121
  23.2297254  36.7386937  31.3987899  18.5200071  24.5259500  61.4493322
  17.9553914  24.3000436  60.7101393  19.0397286  25.2662873  61.1362505
  74.3577742 102.8647537  44.9114943  74.5933746 102.6740188  44.0035629
  73.4005833 102.8647471  44.9156237  18.0252266  26.9317174  55.4812908
  18.0481172  27.6418519  54.8398781  17.9075944  26.1393690  54.9572897
  28.0981208  66.8191857   6.3895714  28.3906943  66.2105234   7.0679199
  28.8370247  67.4153717   6.2678539  13.2513463   4.8172531  72.8149986
  13.8907874   5.4724163  72.5355196  12.6137125   4.7854245  72.1018076
  33.5095358  52.8467464  50.0236273  32.9479837  53.5071945  50.4294634
  34.1984415  53.3512020  49.5910072   1.2512171  26.7223096  60.5450010
   1.3593119  26.9164705  61.4760494   0.5499569  27.3072910  60.2581835
 109.7668396  38.4201741  37.3121572 109.5042519  37.7070761  37.8941989
 110.6259064  38.1563282  36.9825792  16.0298514  22.8326392   3.6290777
  16.6060233  22.4346995   2.9764661  16.4876616  23.6286926   3.8991565
  33.2240129  22.6208019  22.8956866  33.6013436  21.8244600  22.5219274
  33.0121517  22.3844671  23.7987328  31.4554048  44.3125629  62.9174232
  31.4092374  45.1909590  62.5399065  32.0360851  43.8294220  62.3295355
 112.8932064   8.4530818  59.9480820 111.9651510   8.6526370  59.8251057
 112.9171021   7.5080872  60.0985670  57.9924331 105.0733635  70.8171797
  58.8783965 105.3537328  70.5876255  57.7242014 104.5093531  70.0918007
  26.7097521  20.3473926  53.5410261  26.7813015  19.4545639  53.2034302
  26.7388892  20.2467465  54.4924736   4.3751916  23.0796909  38.7462592
   5.0364393  22.3903561  38.6846113   4.8133048  23.7907076  39.2139578
 110.3332026   4.7686431  50.1351786 111.0316034   5.0995016  50.6999779
 110.5836202   3.8635695  49.9497986  36.7910790  44.0682030  87.2595501
  36.9087386  44.0851784  86.3097572  37.4625707  43.4624815  87.5732899
   2.5883912  95.6976832  60.5191994   2.9724263  95.5147493  59.6617126
   1.7572641  96.1297012  60.3221703  27.8577495   0.1182860  61.4456224
  28.3149028  -0.0732587  60.6267500  26.9521117   0.2811104  61.1819124
  12.0330501  11.2466609  52.4043655  11.5345287  11.9287109  51.9543457
  12.0368886  11.5188205  53.3220482 106.8620150  40.3901100  61.9300795
 107.1154742  41.0497189  61.2843943 106.8645911  39.5655990  61.4438581
  17.2126389   7.2300774  70.6808996  17.0283461   8.0834574  71.0733414
  17.5178576   7.4338859  69.7968578 113.2272146  85.2398325  72.3709345
 112.3798082  84.8104573  72.4882793 113.4055398  85.6527520  73.2158756
   6.9233316  45.7915926  51.2941408   6.5146530  46.3407087  51.9632292
   7.2262716  45.0187635  51.7707825  20.5670309   9.0839028  33.4483647
  20.0130081   9.5277488  34.0904641  20.4305458   9.5718503  32.6362610
  43.7764759  56.4930324   7.4740612  42.8269184  56.5301580   7.5889313
  43.8972009  56.1938081   6.5728867  16.1260855  14.7992945  49.1199255
  16.2240446  15.3491402  48.3425522  16.8411899  15.0694239  49.6960211
  18.2727277  60.6392002  62.6468849  19.0909517  60.3925276  63.0780411
  18.5476482  61.1517286  61.8866491  16.1295033  33.0931401  79.3509245
  16.6121483  32.8962398  78.5481071  16.6458333  33.7757611  79.7794819
  23.1316757  27.9352951  38.0957150  24.0814090  27.8651595  37.9991722
  22.7825832  27.2339559  37.5457239   8.9132172  30.6463623  45.4898739
   8.5030359  30.3407788  46.2989521   8.8705295  31.6009951  45.5454350
  98.4837352   8.0314183  68.0779934  98.3907436   8.8006902  67.5160265
  99.2236911   7.5512946  67.7062702  40.7034826  42.1924973  35.5205035
  40.8443689  42.6207829  34.6761370  41.3755083  41.5119600  35.5589628
  38.0224061  12.8095531  56.2546110  38.7418461  13.3417881  56.5942621
  38.1458735  11.9520950  56.6617393  13.1127155  29.3904138  68.3519077
  14.0482867  29.5888543  68.3124208  12.8000867  29.8625779  69.1236305
 102.6459382  79.6253467  81.6336060 102.7359746  80.4381157  82.1311378
 103.4605954  79.1511489  81.8000412  22.8474045  17.5083852  35.1465225
  22.0707321  17.0289338  34.8581791  23.5413218  16.8494189  35.1682210
  18.6465883  20.8430600  35.1314926  17.9189444  21.3096428  35.5426717
  19.3086839  20.7777810  35.8196783 108.4080650  14.1995752  66.9522095
 107.6579635  14.0244031  67.5204468 108.0282347  14.3054760  66.0799980
  29.5599937  10.8422577  55.8973932  28.6724854  11.1948836  55.9623384
  30.1025534  11.4696646  56.3751173  26.5820646  22.1408486  29.9162626
  26.3993740  21.4281940  30.5286169  25.9827590  22.8402019  30.1769757
   8.6825007  28.6180305  43.5889006   8.5671401  29.1934061  42.8326845
   8.7442446  29.2135429  44.3357515  21.2182570  31.7734265  41.6990185
  21.1166787  31.9355679  42.6368999  22.0761681  31.3563991  41.6195822
  97.6907013 105.1366118  27.5059032  97.3365090 105.8316976  28.0605507
  97.0589659 104.4218383  27.5848937  72.6330210  90.2369745  14.5707428
  72.5597454  89.9818976  15.4904186  72.8367401  89.4221146  14.1116821
   9.8120498  92.4258996  50.6405163   9.0052652  92.5316787  50.1363945
   9.5215034  92.3846949  51.5516233  90.2359650  93.3494557  76.3477707
  89.4777188  93.1107772  76.8809938  90.3214071  92.6331044  75.7186651
 105.3916620  43.3683777  74.6771860 104.5769350  42.9765320  74.3626928
 106.0819368  42.8595734  74.2519045  74.4516595  92.9303897  26.7795396
  74.0755565  93.2719040  25.9682775  73.9954436  92.1015204  26.9247127
   1.3852572  37.3099303  70.2256727   0.9398191  36.4755535  70.0785971
   2.1852490  37.2496533  69.7035503  30.0957680   2.5938720  40.6018162
  30.7039070   2.1783169  41.2131405  29.2388368   2.2385663  40.8377361
  13.1840813  49.7074223  32.8728724  12.7814233  49.1304255  33.5218525
  13.9989078  49.2661858  32.6328707  42.9673338  13.1869876  50.3204298
  42.1945524  13.2117307  50.8847237  43.4467602  13.9870286  50.5356312
   2.7996430  30.5986238  44.0535831   3.2173917  30.2884674  44.8570299
   3.2164618  31.4420366  43.8771009 111.5030515  21.8932724  66.8771553
 111.6545668  21.5777659  67.7680683 112.1648531  21.4466953  66.3491201
 103.0373965  51.0538864  77.1701288 103.6092763  51.3254023  77.8880882
 103.4780477  50.2956438  76.7865562  11.4699578  30.8033609  42.7376699
  10.6998134  30.3777003  43.1143999  11.2205935  30.9925508  41.8330956
 111.9001268  33.6876702  65.4679823 111.5477559  33.7935066  66.3516521
 112.3680867  34.5050406  65.2972507  -0.0974675   5.4298609  27.2091103
  -0.2117513   5.5755562  28.1482291   0.5814262   6.0532832  26.9508862
  10.1512765  90.0374032  64.5008373  10.0470542  90.0315238  63.5493469
  10.3255414  90.9534395  64.7170401   3.1822911  44.8657179  73.1553936
   2.4484405  45.4789162  73.1143188   2.9755417  44.2004442  72.4989700
  96.8809078  56.0455657  48.4411860  97.0526955  55.1071644  48.3629560
  97.7468798  56.4396525  48.5461521   4.0141842  19.4666564  41.9329596
   3.4016180  18.8570964  42.3445797   3.5101578  20.2724051  41.8191195
  25.3042865  22.7632833  47.9957676  25.7680750  23.4853244  47.5717497
  25.7635164  22.6385164  48.8262939  93.2848214  21.2507915  68.1122828
  93.1827782  21.7903590  67.3282671  92.4006842  20.9387159  68.3050013
  86.1657176  98.2840556  34.5815158  86.3018093  97.9697008  35.4753232
  86.7534337  99.0351385  34.4996881  20.8292127  24.2279768  70.9347582
  21.0718870  24.2763257  71.8594217  20.5824900  25.1237702  70.7047272
  63.2465479 104.1881207  53.4380293  64.1886447 104.3495384  53.3867502
  62.9321799 104.3183931  52.5433588  65.3730345  11.9440401  30.2290273
  66.3219404  11.8213248  30.2017665  65.0387383  11.3827026  29.5294714
  40.7053117  93.7368042   6.1177647  40.6776054  92.8185756   5.8488476
  41.0474340  94.2000754   5.3532040  26.7957377  67.2745657  67.4836016
  25.8753610  67.2649670  67.7463627  26.7722273  67.3810196  66.5326309
  25.7136011  27.4800348  33.0919456  26.3931704  28.1396222  32.9528046
  24.9118352  27.9861856  33.2231474  14.7983408  24.2442060  62.6945972
  15.3720570  24.1410899  63.4538412  13.9883876  24.6063399  63.0538559
  20.7286549  12.9576552  26.0238528  20.4034591  13.5409582  26.7095923
  20.3970313  13.3366799  25.2098536  19.9619186   8.5579652  73.2383204
  19.1580796   8.2763952  73.6751175  20.0527573   9.4808465  73.4755325
  10.7392359  20.0990963  52.9735470  10.3239977  20.9564018  52.8795385
  10.3681076  19.7403157  53.7796354  22.3004317  33.6684823  59.5457888
  22.3190475  32.8777051  60.0848198  21.4242172  33.6751580  59.1605186
  55.5883608 106.4963025  60.4594421  55.1726816 105.6599093  60.2499485
  55.1152728 106.8127671  61.2290335  52.3266543  75.6942422  15.7259762
  52.2930659  76.6296752  15.9261620  52.1659184  75.6450398  14.7836506
   0.8986596  11.3784397  38.4304357   0.8990144  11.5209281  37.4838996
   1.5998879  11.9418192  38.7577176   8.6212856  45.6745720  64.2181492
   9.5729327  45.6529427  64.1174936   8.4789091  45.6140184  65.1627636
 105.9138219  74.3062162  38.0810595 105.9988128  75.2428341  37.9028726
 105.1509808  74.0336561  37.5711417  41.8642807   8.7929708  50.9604692
  42.6466560   9.2809880  51.2172937  42.0724869   7.8814739  51.1655426
  28.5427213  47.8174400  34.6591353  28.1449223  47.2252655  34.0209198
  27.8716898  47.9296970  35.3324461  23.6073399  56.7367077  27.5992703
  23.3952022  56.8259811  26.6701508  23.1842160  55.9199858  27.8641558
  50.9100151   0.4917651  70.3739452  50.2294207   1.1626852  70.4277134
  50.9743881   0.2901720  69.4404316  30.9783673  24.3284774  72.8587961
  31.4810681  24.9095440  73.4296608  30.2056599  24.8393559  72.6176262
  97.1613251  46.3303423  29.6669984  97.1940945  47.2836828  29.5876622
  97.8921531  46.0202360  29.1322446  43.1581820  66.9718952   4.9342072
  42.9728944  66.5700991   5.7830059  44.0483368  67.3132129   5.0199902
  25.3011179  25.1010513  43.3556318  24.9044561  24.2314577  43.4075928
  24.5836425  25.6760645  43.0895138  17.1771181  37.7821636  81.6334534
  17.5108945  38.6557889  81.4294815  17.9615390  37.2572088  81.7926311
  18.5460854   1.7381483  66.5710688  19.0976131   1.0136282  66.8662262
  18.9539623   2.5182283  66.9470215  97.8480945  17.0347214  56.5995979
  98.1903146  17.7923667  56.1251593  97.0430027  16.8051732  56.1355209
  42.2735977  32.4441409  86.4376926  43.1477165  32.2986650  86.0757732
  42.3808002  32.3185682  87.3805428  32.7422810  56.5761995  14.4781744
  33.3577275  57.2040939  14.8566031  32.6420808  56.8574142  13.5687184
  23.1065059  38.2728982  34.5198655  23.7969971  38.9321685  34.4504738
  22.8949857  38.0512357  33.6130261  45.1840639  23.8198161  58.8414097
  45.3513765  23.0959702  59.4449711  45.0453472  23.3975887  57.9936409
   7.4340546  21.3937449  60.9483004   7.7711082  22.0096397  61.5989161
   6.4934695  21.3535404  61.1212540   4.6613723  51.5755796  45.4248142
   5.3048360  51.1189127  44.8829269   5.1862741  52.1082115  46.0223246
  20.2108550   2.6136598  50.3124666  20.7938933   3.3192307  50.5925894
  20.5940723   1.8220627  50.6902885  99.7501633 101.1594624  50.1743841
  99.1140482 101.0198707  50.8758831  99.2275140 101.4717794  49.4357824
  27.6657867  15.4670465  52.6660776  27.0662403  15.5245757  53.4100294
  28.2636833  14.7553980  52.8947830  37.6959348  24.5805407  42.6214075
  38.1143188  23.7930608  42.9693460  37.0353317  24.8095512  43.2751560
  62.7297640  25.4967308  36.9617748  62.9381943  25.6223464  37.8875232
  62.9194021  24.5731306  36.7967558  36.0269475   8.8360095  42.3400879
  36.5821934   8.7664312  41.5634966  36.6211295   9.1201478  43.0346727
  26.8332219  27.1538520  82.8222942  26.3806868  27.8024673  82.2830868
  26.4278674  27.2352600  83.6855984  45.5790138  28.5729146  12.5565112
  46.4620066  28.2557845  12.3668110  45.7150602  29.4158840  12.9890883
  22.9905748  62.0719004  11.6249311  22.2126985  61.6425991  11.2687838
  22.7934194  62.1925831  12.5537992  14.7933698  17.1446753  63.4810591
  14.1956568  16.6261661  62.9424334  14.3466127  17.9835260  63.5949469
 111.9659309  61.4614725  34.5862865 111.8695684  61.4232826  35.5378580
 111.0825197  61.6383982  34.2629981  18.8450086  20.5602288  44.9622965
  18.0357134  20.0521564  45.0183058  19.3842471  20.0830030  44.3316555
 101.3307916  37.2722745  66.2742138 100.8915685  37.2415614  67.1241379
 101.2438320  38.1829190  65.9924412 103.2044350  17.6539946  23.3151221
 102.7597414  18.4959662  23.4129143 102.6608227  17.0375991  23.8058090
   7.5702417  33.9462090  52.1936941   8.4896034  33.8420844  52.4389791
   7.5582063  34.7223449  51.6336060  40.9667826  29.2374229  77.1110868
  41.2576818  28.6252975  77.7870369  40.4200697  29.8687029  77.5788736
   6.0123211   3.8062066  47.8376961   6.7357284   3.1970894  47.6897478
   5.9509140   4.3072063  47.0243931  38.7683773  16.6551781  73.9103174
  38.4203506  17.5442886  73.9780760  39.0808725  16.4524448  74.7920656
 100.4714952  17.1591198  44.9325371 100.1207612  17.7912688  45.5599165
 101.4210056  17.2650409  44.9912071  63.4322796  93.5880375  21.5234017
  62.9335711  93.2055128  20.8014631  63.0869660  93.1595028  22.3065662
  98.1693504 100.9880943  25.9635401  98.9596436 100.9880376  26.5036011
  97.9132912 100.0671304  25.9136391  36.3865566  37.0876789  56.4448977
  36.4791131  38.0354595  56.5417290  36.9035339  36.8746734  55.6679869
 108.2262664  33.5284400  48.2151127 108.9741977  33.3751345  48.7924576
 108.6117957  33.6256838  47.3443985 102.5547597 100.8521820  49.9088049
 101.7441771 101.3609392  49.9276400 103.2504151 101.5083975  49.9497366
  15.7651997  66.9673681  56.6504622  15.1282525  66.5674829  56.0583305
  16.0277343  66.2565327  57.2352839  63.3376155  97.2691531  39.4582677
  63.4716437  98.0933691  38.9903617  62.5527213  96.8926675  39.0602326
 100.1212166   5.8359712  56.6667557 100.8229695   5.2996778  56.2977552
 100.1398705   5.6429201  57.6041031   4.1097116  87.4947572  34.7130609
   4.7250270  88.1597865  35.0218630   3.4557866  87.4318016  35.4092240
 102.2271583  96.0049260  44.7679377 103.0001352  95.8227230  45.3023005
 102.1053526  96.9517607  44.8379421   8.4976100 101.2752551  42.8823996
   8.5965871 100.4541773  43.3643389   9.0239572 101.9061605  43.3734655
  83.0290125  37.9357743  59.6752691  83.1127547  38.5845876  60.3740263
  82.1098994  37.9841948  59.4123650 101.3722274  96.4135743  70.5223846
 101.6108105  97.2417284  70.9388828 100.9287379  96.6709972  69.7141266
  24.0654922  42.3442745  44.1079330  24.8599577  42.7332544  43.7422180
  23.4562182  42.3061132  43.3706665  22.0227647  75.3167582  35.0108290
  22.3833442  75.0959063  34.1520858  21.2194085  75.7994843  34.8163295
  19.2235076   2.5786272  17.7084756  19.3837500   2.4473238  18.6429882
  19.1321218   3.5265589  17.6120079  83.1017803   2.9653043  47.0625830
  82.9343174   2.8017128  47.9907131  84.0440033   3.1268340  47.0140457
  15.7523763  42.2439575  46.0610914  15.2029610  42.8607321  46.5447855
  15.4004025  41.3826084  46.2856531   3.5462984  43.7871122  64.3062162
   2.6290536  43.6502695  64.5432138   3.6046752  43.4954643  63.3963966
 103.2844816  43.6492729  79.8536539 102.4221812  43.2492018  79.7413540
 103.1036888  44.4994736  80.2545452  17.3171687   9.7956729  30.8562374
  17.1355593   8.9508796  31.2680316  18.2700908   9.8791277  30.8909631
  24.1039968  57.2995806  83.0566502  23.3221030  57.7212238  83.4131432
  24.4357204  57.9198694  82.4074745 113.1153689  39.2882586  49.9262381
 112.3339848  39.7698808  50.1977348 112.7808404  38.4516478  49.6031189
  31.2294482 106.3735355  25.2023840  32.1709870 106.2463645  25.0859046
  30.9562349 105.6440276  25.7586241 102.8077732  32.5507140  70.6326628
 101.9896124  32.3564672  71.0899496 102.6487265  32.2754025  69.7298098
   9.7848523  32.4552083  48.8141632  10.1793790  31.9465590  49.5225811
   9.8418027  31.8836594  48.0484486  83.8154219  25.5023789  91.9219494
  84.2657660  24.9815011  91.2570381  84.2426871  25.2623367  92.7441788
  15.0122225  13.2121992  55.5220938  15.6844616  13.4512937  56.1601877
  15.3188407  12.3855078  55.1495409  43.2662678  31.3317704  35.6752682
  43.8112926  31.6515541  36.3942385  43.3012581  30.3784466  35.7538867
  20.1198864  17.8661191  32.2774100  19.6055782  17.8308570  33.0839300
  20.0915909  16.9723141  31.9360256  18.1326199  29.7756577  64.7214079
  18.5729921  30.5864143  64.9763203  17.9590440  29.8812604  63.7860203
  22.4556279  11.0460460  55.5067635  21.7025852  10.5293453  55.7934380
  22.1477103  11.9520402  55.5311537 111.1675304  24.6900558  67.3483753
 111.9935076  25.0715017  67.0508957 111.3639913  23.7617207  67.4741745
  28.6927867  38.3071685  50.9017277  29.1434836  37.4760890  51.0514259
  28.5697222  38.3454394  49.9532413  15.2403104  36.0589957  36.2759614
  14.3274653  35.8356452  36.4577842  15.3028905  36.9928765  36.4764214
   7.8290671  16.7465425  50.4651403   8.4656870  17.4613106  50.4723501
   7.4989474  16.7107606  51.3628960  36.8737435  73.7332582  61.4273882
  36.8113399  74.6692610  61.6177559  36.2504077  73.3246136  62.0279646
  23.3753610  24.4991612  75.1929235  23.3387232  24.5070338  76.1493874
  24.1583204  23.9882994  74.9874258  32.7949858  14.2467487  40.1739979
  33.2316875  13.4747136  39.8141575  32.8467202  14.8987281  39.4750881
 106.8922517  88.6143768  55.9732294 107.6577947  88.1197942  56.2657404
 107.0803974  89.5183576  56.2255239  36.1886859  25.0643706  44.7075653
  35.5594707  25.3525066  45.3688526  36.9494104  25.6305051  44.8380327
  19.6161485  37.4490499  86.0418797  19.2218292  36.5975595  86.2308502
  20.5517936  37.2660351  85.9564114   8.7048918  13.1139314  41.7968464
   9.2776006  13.7065971  42.2836590   9.2959857  12.4548531  41.4329004
  34.7273898  48.2840395  54.1943264  35.4681849  48.8633204  54.0157461
  33.9905572  48.6896992  53.7374306  18.0822814  54.7484922  55.7584476
  18.3491957  53.9438200  56.2028503  18.8995540  55.1229095  55.4296494
 107.9588453  45.3862238  40.4061842 108.0284576  44.5988798  39.8662996
 107.1583800  45.2576876  40.9150696   9.1671950   9.7736710  68.2874346
   9.5731807  10.3954935  68.8913727   9.8101783   9.6658671  67.5865889
  10.8849263  12.3714781  19.5216095  10.8700383  11.7335236  20.2350688
   9.9849623  12.6932764  19.4692338  27.1562147  59.5680475  51.8667030
  26.9456530  59.5980692  50.9334326  26.4619637  59.0332985  52.2517872
  20.3178167  95.3537214  70.2429152  20.3206777  96.0899389  70.8546400
  21.2104797  95.3249491  69.8985958  99.2794250  19.3433273  92.0683193
  99.8754214  20.0759816  91.9126320  99.5818101  18.6578345  91.4725876
  94.9445269  94.6548105  22.3829699  94.8747108  95.3099549  23.0773330
  95.5552385  95.0375569  21.7530727  26.0833240  16.0997415  67.0108461
  25.2853489  16.1516643  66.4847565  26.5999746  16.8578625  66.7377949
   3.6755803  59.7101259  73.8968706   3.5723326  58.8250160  74.2463732
   4.3436858  59.6227503  73.2169914  20.6736422  17.4401903  24.7509575
  20.2742171  17.7012897  23.9211893  20.1161957  17.8368366  25.4204011
  24.7576427  27.0027256  85.4644585  24.3817067  26.3849115  84.8373890
  24.6916318  27.8537083  85.0312138  33.7830043  33.3159804  71.8897343
  34.2394853  33.3558607  71.0493422  34.2867541  32.6869988  72.4063110
  48.6430502  11.0201204   9.8084259  48.3632374  11.7872560  10.3078651
  49.1755915  10.5153346  10.4230976 108.7727065  37.5016022  66.9753695
 109.6896835  37.5457859  66.7043829 108.4887759  36.6245747  66.7176199
   6.6197628  27.5359440  71.2725639   6.4934063  28.4799600  71.1771727
   6.4075863  27.1776009  70.4107046  34.3430519   5.8160132  45.4798126
  35.0276756   6.3285089  45.0498486  34.8049664   5.3165138  46.1531401
  22.1173191  31.9682908  64.3035793  21.2823415  32.1129131  64.7486973
  22.5539494  31.2955999  64.8261404   8.6949778  14.2673814  79.3529940
   8.7541610  13.3323753  79.1567945   8.0115658  14.3292856  80.0203419
   5.9681529  39.5097375  71.6682529   5.3553808  39.6005106  72.3979807
   5.5108809  38.9512682  71.0395670  25.7793570  41.4835405  51.4727306
  26.7177629  41.4871597  51.2840223  25.6015515  42.3575401  51.8202019
 113.2096187   1.5791836  70.5948734 112.8146873   0.7246505  70.7681751
 112.4662232   2.1542704  70.4135704  22.9695034  19.9818528  49.1777134
  22.3639393  19.2663169  48.9839792  22.8127360  20.6227040  48.4841967
  50.9504366  12.2350752  28.2709289  50.9675932  12.2406530  27.3139000
  50.8572102  11.3112330  28.5034275  15.5476296  27.4213600  29.3829441
  15.4426551  27.8477478  28.5324121  14.6620059  27.1523428  29.6269369
 109.5382287  22.4850416  54.2699003 108.6023004  22.6833391  54.3006945
 109.9203105  23.0247879  54.9619389  41.2543488  20.0973511  69.5248032
  40.9569550  20.8639169  70.0148678  41.1739826  20.3543258  68.6062527
   4.0377711 100.3563506  38.0200028   4.5379352  99.6743537  37.5717306
   3.6326217 100.8596075  37.3137331  53.0204285  80.8273776  17.2833359
  52.7922858  80.8632810  18.2122528  53.6649252  81.5256007  17.1678269
  15.1950419  56.6992855  64.9569082  15.4013455  57.1448803  64.1352558
  16.0394657  56.6076183  65.3982449   3.2004228  15.7572663  74.0459776
   3.6408252  15.6695294  73.2006502   3.8771975  16.0904872  74.6351910
 112.1574654  37.3216796  36.6947222 112.9106283  36.9874716  37.1818399
 112.5025251  38.0655241  36.2009025 107.5213842  28.0417514  68.0383015
 107.7435891  27.5054312  67.2772408 108.1948791  27.8307033  68.6849070
  28.4049559  30.5101490  52.6517963  27.7966094  31.0344124  53.1726551
  29.0515113  30.1954246  53.2835770   1.9284315  27.0060849  79.7269344
   1.0761141  27.4362564  79.6580982   1.7826076  26.1279106  79.3751144
  99.8604237  69.5038605  54.5253658  99.7483490  69.3209314  55.4582167
  99.0995549  70.0359249  54.2925262  29.5602846  23.9771032  91.9630241
  30.1244116  24.6435165  92.3553085  28.9666796  24.4693685  91.3959789
  11.7726802 103.5264710  60.1092386  11.5333938 104.1696907  60.7765007
  12.2122287 104.0381086  59.4300795   9.3335617  21.4045644  63.8029194
   9.9092299  20.6555057  63.6488199   9.8100394  22.1513987  63.4403706
  30.6585026  24.0361094  47.4448586  30.1742697  24.1999245  48.2541275
  30.9786510  23.1385326  47.5348186   7.3457140  48.1811094  42.5466871
   6.4280158  47.9829931  42.7332687   7.6484680  47.4407434  42.0209217
  23.5022092  23.9229202  60.4687071  24.2964935  23.5588408  60.0778246
  23.0943990  23.1818724  60.9167767   2.9358494  31.0398364  78.3429718
   3.0155635  31.4511275  77.4823236   2.8321841  30.1072073  78.1540632
  31.8418717  92.5888062  57.5979948  32.7157903  92.3266029  57.8873825
  31.2486625  91.9977570  58.0616665  34.6778989  23.8485146  71.4931345
  33.9824605  23.3154082  71.8783522  35.4130483  23.2443929  71.3891077
  38.2134819  45.0746870  53.5673761  37.8030634  45.2164602  54.4204235
  39.0791035  45.4751158  53.6485386  18.9816582  64.2506552  63.4435701
  18.5241473  64.0212536  64.2524529  18.2961714  64.2617559  62.7755737
  39.4910884  35.7549548  62.7509832  38.7366891  36.2175775  62.3861647
  39.9758458  35.4462457  61.9855165  80.4120490 104.2579191  82.8937835
  79.7224089 104.9214666  82.8754849  80.9173009 104.4592493  83.6814481
  53.9272059  37.5121970   3.8194668  53.3927084  36.7766650   4.1187012
  54.6217192  37.1077044   3.2995999  24.7350121  55.0474024  50.7533836
  25.4231548  55.3340006  50.1529217  25.0307298  55.3420877  51.6147423
  47.3382854  35.6831598  49.9219370  46.6935253  36.3903999  49.9040318
  47.7978420  35.7990122  50.7535744  27.2877741  43.4022474  54.0779018
  26.5472293  42.9173803  54.4422150  27.0746899  44.3214464  54.2388439
  35.8989644  72.3864794  35.4668999  35.2185082  72.4201155  36.1392689
  36.6503835  72.8264952  35.8643723  38.5136271  12.7437031  82.5100517
  39.1818976  13.2840776  82.9315186  38.9946055  11.9883454  82.1719265
   2.8631693  58.5862827  57.4208641   2.6648694  57.8202677  57.9594994
   3.8194332  58.6210871  57.3967791  42.9439259  24.2858672  32.5894427
  42.3917103  23.6081100  32.1996522  43.1343317  23.9625502  33.4700346
  12.2646272  16.4766061  50.4517555  13.0245805  17.0322883  50.2787876
  12.2425377  16.3909161  51.4048576  49.6716881  15.6543183  54.9508905
  49.3109989  15.3540802  54.1166306  50.5934191  15.3980780  54.9194098
   6.5060729  41.1248827  53.4141827   6.1890972  40.3061867  53.7956190
   6.6929537  40.9071064  52.5010109  26.2712288  13.4074199  61.0995388
  26.0300684  12.4889481  60.9791994  26.9026446  13.5826612  60.4018021
  50.0606537  34.4980764  38.4812760  49.4867849  34.1380024  37.8050733
  50.5579472  33.7446356  38.7994862  49.9190378  34.1395783  49.0571690
  49.0301943  34.1614819  49.4117260  49.8125458  34.3538022  48.1303453
  50.2836370  14.1702175  60.9325600  50.6301689  15.0620329  60.9040689
  50.8237219  13.6833954  60.3100300   1.5342654  39.6927953  64.3125200
   2.4360809  39.5707560  64.0157604   1.2461793  40.4962158  63.8792181
  32.4469352  37.3739505  68.4204578  32.9628015  38.0575776  68.8479710
  31.8677878  37.8485274  67.8241396  80.5979825  88.0341156  23.0863678
  81.3371087  87.4970276  23.3717835  80.8012200  88.2580574  22.1781933
  33.9505839  27.7188873  91.4728451  33.0840063  28.0866694  91.2996101
  33.9063621  27.4189830  92.3807716  39.1359687  40.4060078  45.2003574
  39.8390722  40.3649855  45.8485794  39.1297770  39.5373058  44.7984219
  19.5007980  31.0687709  48.9094877  20.2514124  30.5757260  49.2407227
  19.0056777  30.4329562  48.3929348  13.8215661  59.4967175  57.5541925
  14.5861936  59.0939522  57.1426582  13.9640391  60.4380131  57.4547577
  20.0838614  39.9861693  85.3263378  20.9534073  39.7345519  85.0152016
  19.7155786  39.1793537  85.6864071  50.4632187  33.6970329  77.8653145
  50.1410866  34.3178177  77.2117949  50.9143877  34.2412496  78.5106897
  46.9298697  81.8573475  29.5895100  46.9469786  82.7899647  29.8043776
  47.2149658  81.8166065  28.6766624  29.3312693  47.8885603  50.7050419
  29.0343189  47.1140718  51.1827612  30.2865815  47.8347158  50.7316637
 108.8138322  17.3140192  14.9654162 107.9975067  17.5619602  14.5314014
 109.3916412  17.0429909  14.2520356  79.8759700  86.7740376   2.6914513
  79.8763848  85.8408554   2.9045212  79.1198397  87.1265347   3.1607544
  27.4195623  82.7676678  44.4069576  27.5034976  82.1394253  43.6896753
  26.7397666  83.3750439  44.1150522  29.4382095  32.3465896  42.4632454
  30.3927827  32.3187852  42.5284147  29.2172456  33.2710505  42.5762987
   7.9936618  44.1209221  48.0193090   8.0751777  45.0314760  48.3029938
   7.3003072  44.1367531  47.3595810  52.5857925  54.1292667  61.4586067
  51.8653679  53.7412453  60.9619570  53.3429050  54.0585518  60.8772182
  25.8491588  13.0968416  67.9639769  26.1567521  12.7169836  68.7869740
  25.5480814  13.9735675  68.2025957  39.9839306  27.4498820  68.9916229
  39.6648145  27.0775247  68.1695843  39.2232370  27.4352336  69.5724535
  14.6208525  49.1943550  42.3694944  15.2506602  48.6004782  41.9609833
  15.1569355  49.8999214  42.7314663   4.8755378  21.3201690  62.0067310
   4.6913528  21.1562824  62.9316330   4.2267555  20.7962441  61.5368176
  12.2330189  44.7480440  49.3412638  12.2639191  44.5872021  50.2843475
  11.2998128  44.8210669  49.1411972  36.2052321  83.6678314  53.3889771
  37.0976639  83.3362103  53.4880972  35.6540942  82.8859329  53.4222698
  32.5612092  56.1305428  44.6057177  32.8031182  56.9159079  44.1148853
  31.8065548  56.3987064  45.1299477  27.8517318  12.8789163  63.2910395
  27.4295068  12.9828203  62.4383020  27.1715689  13.1075907  63.9245319
  28.1844544  45.1454639  42.9042959  27.8568888  45.6490469  43.6495018
  29.1296601  45.2964067  42.9101229  58.2810497  19.8997140  67.7823734
  58.0472279  19.6481621  66.8889093  57.7460957  19.3332851  68.3384466
  47.6113987  41.8439436  62.2643137  47.0416021  42.2428656  62.9219055
  47.0124102  41.3869476  61.6738939  54.5377207  21.1752558  76.2395048
  54.7280216  20.3749847  76.7289782  55.3537941  21.6745687  76.2701988
  35.7764411  31.6088247  56.7636156  36.0723329  32.0924687  55.9924078
  36.5770292  31.2398982  57.1366930  36.5466166  22.0097804  37.7463508
  36.9096351  21.5978408  36.9622874  35.9899163  22.7128267  37.4116302
  40.2100325   9.9651057  59.0368605  39.7692490  10.7457685  59.3722868
  41.0761070   9.9855244  59.4439602  11.9038022  62.1855211  56.0316420
  12.6415813  62.3359632  56.6226435  12.1088946  62.7062988  55.2551365
   3.2743493  36.2118173  51.7175579   3.2474118  36.0362005  52.6581240
   3.7926781  37.0126081  51.6381741  20.3898000  98.8712848  33.0436611
  19.9261903  98.4283060  32.3329806  21.1729097  98.3397639  33.1867003
  51.5343475  13.7818503  71.7022991  52.0612717  14.0175211  70.9387255
  51.7461586  14.4494379  72.3547554  27.7220297  47.2664547  71.2766123
  28.3310342  47.6608896  71.9009209  26.8547702  47.4963856  71.6101170
  47.3384237  46.9185972  25.9477687  47.0068026  47.8022194  25.7881880
  48.1721163  47.0533991  26.3983488  23.6224389  66.3690042  51.5210438
  24.2698026  66.1877918  50.8396387  24.1310334  66.7403316  52.2419357
   4.2128024  40.5344391  73.4331656   5.0373471  40.7935858  73.8445044
   3.7102354  40.1280832  74.1392374  49.9340057  36.6650772  56.5813160
  49.5040178  36.4401174  55.7562494  50.6524086  36.0369492  56.6560459
  19.0983820  27.1169019  21.7818737  19.9892235  26.7975855  21.6381025
  18.9368069  27.7132678  21.0507989  98.0869792 105.8914073  40.1489830
  97.8864143 105.8464526  39.2141104  99.0363143 105.7783308  40.1959848
  28.7639260   3.8013652  57.8809023  29.6792555   3.5611531  57.7370071
  28.7816691   4.3563151  58.6606121  59.0358734  30.9188366  61.7712116
  59.8613119  31.3977838  61.8452835  58.4922886  31.2677550  62.4776173
  18.5377681  33.3839011  71.7085934  18.9439023  33.7936997  72.4723673
  19.2737734  33.1456709  71.1448765  11.7485332  49.9213982  54.4750357
  11.4371634  50.3199148  53.6623430  11.7203569  50.6315851  55.1161814
  33.7607622  30.8727360  52.4473763  34.0659237  30.4746389  51.6321278
  33.9700508  30.2270031  53.1222534   0.9759906  17.3518622  57.4447823
   0.1868695  17.8726673  57.2955084   0.6591055  16.4512706  57.5137138
  57.0582199  24.5370150  49.4249535  57.6456356  23.8552260  49.0988636
  57.0801687  25.2151299  48.7497425  20.7566786  61.1881113  61.1220026
  20.5706239  60.8869982  62.0113516  21.2009358  60.4488420  60.7068586
  34.5483184  49.8287487  62.5741625  33.5949850  49.8648834  62.4961901
  34.8679543  50.3862190  61.8647289  11.3571250  19.6856213  42.3340893
  10.5945027  19.8777521  41.7884493  12.0845127  20.1231122  41.8916655
   7.9261422  16.4221227  63.3106279   7.0588636  16.0838747  63.0878067
   7.8810954  17.3546171  63.0993128  28.7030697  41.6079712  42.1706057
  27.8637290  42.0677614  42.1888685  28.7188506  41.1057901  42.9853439
   6.6063625  68.9742613  49.4902849   6.4575458  69.9197960  49.4975710
   7.4483973  68.8677359  49.0477228   0.7436907  56.0517645  86.6323280
   0.8416152  56.0459661  85.6801701   0.8121920  55.1312685  86.8857574
 108.5186984  39.3116331  50.7883596 107.8162645  39.2142868  51.4312744
 108.6647163  40.2560854  50.7343006  63.5255671  35.5657816  65.3194094
  63.7943697  36.2885690  64.7523499  64.0181112  35.7005954  66.1290169
  15.7427323  34.3312287  33.1474233  15.3915107  34.0175772  32.3140574
  16.4421797  33.7134075  33.3602691  45.3833485  21.4044476  35.7256746
  45.1077890  21.8982267  36.4979982  45.9367800  20.7051349  36.0733914
   5.5480367  60.0688553  72.0251751   5.5932432  60.9845591  71.7500877
   6.4612836  59.8111963  72.1509647  64.0012693  35.4718518  82.4009514
  63.9720869  34.9730849  81.5844917  63.4434223  34.9790215  83.0027580
  20.4000282  10.9839213  11.4741492  21.0403967  10.2985156  11.6648841
  19.7161770  10.8628047  12.1328688  27.3078680  77.8882408  53.3179379
  27.5426006  77.5750256  52.4444246  28.1419373  77.9451656  53.7841129
  31.6791940  27.7284718  34.4227552  31.4699674  26.8532515  34.0964961
  32.0786715  27.5757027  35.2790928  25.3557277  36.8409657  40.2962017
  24.9802351  36.4533162  39.5056558  25.9549308  36.1729026  40.6291866
  60.5313349  10.8729148  62.7135086  60.5500889  11.0724783  63.6494875
  60.1466990   9.9978614  62.6628447  35.1232314  37.2617769  73.8180256
  35.2817249  37.6748538  74.6668386  34.5747542  36.5035677  74.0193272
  48.0200768  33.1182122  43.7594366  48.1759644  32.2069860  44.0076256
  48.5766077  33.2562590  42.9929829  17.3856497  59.2885828  57.7149773
  17.0176136  58.8148832  56.9690609  17.1460342  58.7600470  58.4762049
  30.9374285  31.8746853  70.4168606  31.8570423  31.6637683  70.2554417
  30.5946517  32.1239614  69.5586109  27.2365880  24.5769429  71.3748360
  27.7132535  25.3631353  71.6411448  27.5689363  24.3805242  70.4989386
   2.6002401  62.7799177  81.4791584   2.2332574  62.3517084  80.7057285
   1.8532842  63.2172108  81.8878937  15.7070303  62.2606897  17.5340545
  15.3133738  61.4196301  17.7661872  16.6452134  62.0789814  17.4790537
 108.7919543 104.9202158  59.2631674 109.4730494 105.4860582  59.6267033
 108.8042829 104.1421199  59.8205233  66.3827419   1.5855530  45.4758358
  66.3757324   0.7145742  45.8727980  65.6859112   1.5555993  44.8202705
  51.7140055  45.5047131  75.9265852  52.3295784  45.6839561  75.2158308
  51.5834761  46.3531542  76.3500643  54.2173290  31.3886261  70.9509993
  54.2889357  31.7925739  71.8158293  53.8948107  32.0899701  70.3850222
  34.5160413  15.0179517  34.2572713  34.3382120  14.0806532  34.1793036
  33.6854219  15.4386175  34.0351391  22.0905089  36.5809965  85.4606342
  22.3036957  36.7096782  84.5363903  22.3022389  35.6629467  85.6297016
  23.8311911  60.6488609  48.2164288  24.7048879  60.9991598  48.3901501
  23.2767010  61.4235258  48.1233406  11.3241446  46.6208458  30.0627661
  11.4035749  47.5221109  30.3752518  11.2708569  46.7013502  29.1104484
  29.5047569  35.9718037  70.7410526  30.4613590  35.9827042  70.7090139
  29.2896914  36.3366246  71.5994740  29.6851015  42.8952456  76.0826969
  29.0699983  43.5575962  76.3976049  30.0808311  43.2868195  75.3040457
  35.0325727  13.6155951  36.9362354  35.4583168  14.1555142  36.2703061
  34.4922161  14.2298973  37.4331045  24.8246002  36.8878293  52.1075678
  24.7933745  36.3290405  52.8841019  24.6315193  37.7658105  52.4363518
  35.4749632  29.9831986  65.6834555  34.7790647  29.3956733  65.9780264
  35.6004691  30.5903840  66.4127064  24.3359494  44.4051933  80.8265114
  24.7202444  43.6964417  81.3424778  23.4793282  44.0707684  80.5608082
  33.4516883  68.7736416  48.0168247  33.6325979  69.5029497  48.6097956
  34.0466046  68.0800247  48.3017874  22.1522474  17.2804439  52.8177309
  22.1672702  18.2349455  52.7474928  21.6236234  17.1058726  53.5963917
  16.5699387  68.2220507  37.7487540  17.4220419  68.2377720  38.1845355
  16.5825975  67.4197531  37.2268462  28.2647061  42.3326826  79.5059347
  28.5133314  43.0802584  80.0495720  27.5112367  42.6421785  79.0032148
  68.9043138  96.9648463   5.4515719  69.6118561  97.5588537   5.2010310
  68.1540797  97.2532803   4.9317777  53.2193851  47.8694534  64.2135620
  54.0609217  47.8550148  64.6694613  53.3563519  47.3218441  63.4405184
   4.1750073  56.1063814  58.2671356   4.7627151  55.3803110  58.0581903
   3.9678824  55.9877300  59.1940928  32.9014111  34.6317744  44.0802288
  32.4499416  35.4716086  44.1644049  32.9629254  34.3020058  44.9767256
  26.9228411  25.8255410  31.1194468  26.0876775  25.8847642  30.6555200
  26.8139863  26.3936329  31.8821073 105.2460425  47.3071146  38.3653975
 104.8960106  46.4200115  38.4476113 105.6806563  47.4716187  39.2022252
   8.1934953  44.7240829  43.9573002   8.8563794  45.3981400  44.1071701
   7.5566226  44.8540449  44.6599627  14.7649944  57.1360159  89.4852352
  15.4748774  57.0967865  90.1261425  15.1123381  57.6767731  88.7758923
 111.4618257  42.9933596  57.0623064 112.0845909  42.2717476  57.1498919
 111.9829158  43.7801933  57.2222757 113.2720294  31.0155177  41.7293739
 112.9532963  30.9955692  40.8270216 113.5457094  31.9224167  41.8667221
  14.8206222  57.3280716  52.7322960  14.6760535  56.5580893  52.1823359
  15.7169902  57.2284746  53.0529785  27.3493528  55.0741720  67.6666451
  27.3787332  56.0155296  67.8375626  28.1057453  54.7218609  68.1356668
  53.2785463  15.4031301  63.0727577  53.0681849  14.6352232  62.5414419
  53.6571360  15.0430477  63.8747835  39.9587274  39.8778081  54.4403362
  39.3889332  40.6462908  54.4086647  40.8107758  40.2222633  54.7079182
  39.5443177  33.4995842  34.9851775  40.3568554  33.2168436  34.5655727
  38.8981032  33.5013056  34.2790341  42.8839207  45.4441786  53.2617760
  43.7516356  45.6479120  53.6107731  42.9718161  45.5642843  52.3162174
  38.4882379  62.9949617  56.8472767  39.3350506  63.4397125  56.8106604
  38.1591916  63.0320597  55.9491777   2.6742291  19.9715114  58.6823511
   2.7116343  20.4551744  57.8571844   3.4105092  19.3616080  58.6360788
  15.1635921  38.3336163  51.4331102  15.2484012  38.7896943  50.5958319
  15.9536922  38.5731769  51.9174528  50.8175850  15.1296663  90.8711433
  51.0494328  15.9219706  90.3866482  51.3897276  15.1420796  91.6384315
  18.8353181  16.6606390  62.6274347  19.6604931  16.6530752  62.1423960
  18.1593466  16.6251588  61.9506502  21.5377951  47.7265835  48.4131861
  21.9094491  47.2093821  47.6986217  22.2988200  48.0616283  48.8873386
   2.8928158  44.1398335  30.7845473   2.3582035  44.4079208  31.5319109
   3.6785194  43.7587214  31.1765385  35.0144386  27.7138972  39.2092657
  35.1077533  27.0450640  39.8876357  35.3436542  27.2956872  38.4136868
  21.7064571  29.5664287  50.3435659  22.4520969  29.9088430  50.8365250
  21.1615920  29.1354132  51.0020351   8.0905163  51.8476200  64.3928814
   7.6959544  52.7117968  64.5101357   8.9575273  51.9241333  64.7912169
  98.5151468  29.7397947  81.2075329  98.6617552  28.9672589  81.7533588
  98.2615720  29.3860865  80.3549957  29.3833232  39.8654890  44.3065405
  29.8086762  39.1803074  44.8221302  28.6697793  40.1763821  44.8637056
  36.2277031  71.8159676  54.3250942  36.2143731  71.1479139  55.0104856
  37.0783138  71.7061377  53.9000893  31.4491606  64.2203522  74.0004826
  31.9798112  63.8439751  74.7026110  31.1738348  63.4669495  73.4781790
  18.0269742  63.9526081  59.4343710  17.7860510  63.0600929  59.6825886
  18.8598692  63.8562250  58.9726067  16.7285085  32.5586224  69.6305132
  17.0079851  33.0021739  68.8296461  17.3279655  32.8800488  70.3039885
  58.6844254  27.8679633  49.1188765  59.3773985  28.4255362  49.4726086
  57.9869413  28.4771991  48.8768387 110.1058669  41.7524862  67.1044159
 109.4301446  41.0778713  67.0371723 110.9038480  41.2712336  67.3231697
  32.1149850  48.1754255  51.0865164  32.1642661  48.8376856  51.7758751
  32.7279449  47.4946594  51.3641262  36.9937158  53.2582188  44.8191118
  36.2087822  53.8059282  44.8302221  36.9580698  52.7718496  45.6427670
   5.6194252  57.9257298  82.4544525   5.7707673  58.6350727  81.8298244
   6.2982690  57.2813082  82.2541428  21.9373298  22.5989079  44.9228716
  21.1945915  22.0913482  45.2499151  21.8742108  23.4375215  45.3800106
   9.5379061  58.4620857  60.9871197   9.5365304  58.5844326  60.0377750
   8.6115038  58.4336567  61.2262917  10.3590512  51.7833233  40.8206224
  10.8981109  52.1094465  40.1000071  10.9833026  51.3771296  41.4219141
 101.8974970  52.2624683  58.0957747 101.4580844  52.3798561  57.2535372
 102.7512525  52.6797152  57.9807138  18.5808611  38.3371711  67.2676325
  18.9031398  37.5551987  67.7158356  17.9752958  38.0018449  66.6065121
  19.4195724  69.7452497  31.2401962  19.2342651  70.6842566  31.2528205
  18.7454689  69.3757343  30.6698680  10.1447046   2.7869862  77.0932579
   9.6393853   2.9511237  77.8894615  10.4856944   3.6461341  76.8446159
  43.7601566  22.2472286  85.6563759  43.5139656  23.1318164  85.3859520
  43.0665922  21.9793248  86.2592220  25.7138920  33.4150863  52.7326059
  25.2628016  33.8036418  53.4821224  26.5755343  33.8319707  52.7291822
  58.4775329  47.7335430  11.6641152  58.4894944  48.6797373  11.8083489
  58.4623934  47.3572851  12.5441277  39.8069835  46.8643332  85.9445381
  40.0089169  47.0533943  85.0281811  38.8729048  46.6552210  85.9457397
 101.3206006  80.5124338   5.1260101 100.6555796  80.2438505   4.4921028
 100.9023763  81.2098439   5.6309330  53.7435532  48.8954687  58.4733820
  53.7284994  47.9452991  58.5881805  53.3717966  49.2407084  59.2850733
  27.9001713  47.9439306  59.2562675  28.1129789  47.2908211  58.5896397
  27.0896244  47.6254034  59.6534967  10.1357698  37.4506307  44.2889261
   9.4112676  36.9626737  44.6803617   9.7222370  38.2193303  43.8960838
  31.2601161  34.4415021  32.4530792  30.3219819  34.3388200  32.2931004
  31.3405752  35.3037333  32.8608990  26.5602040  61.4707470  48.9355659
  26.5571594  62.1655941  49.5939064  27.0252299  61.8496037  48.1896114
  96.0991941  70.0605249  48.9913464  96.7338358  69.9656487  49.7016001
  96.2436663  69.2936516  48.4370279  11.1385286  18.7894869  47.0368624
  12.0769238  18.9726341  47.0827341  10.9922910  18.5136127  46.1320210
   6.6953892  12.4957967  69.4810915   7.2838950  12.5237668  68.7266970
   6.3029903  11.6234088  69.4465351  58.2241297  16.6030955  32.5486398
  58.1966829  15.8008361  32.0272398  57.8127146  17.2645068  31.9923091
   7.3922199  41.8120289  45.9036160   7.2154069  42.6574707  45.4910660
   7.8739327  41.3179064  45.2402687  17.0926106  37.8762746  60.3211260
  17.3026001  38.7890649  60.5184937  16.2695217  37.9196978  59.8344326
  22.9172778  35.6026292  66.6036415  23.7175059  36.0399747  66.3127899
  22.2281837  36.2547112  66.4764690  43.8280869  41.7035198  52.0916605
  43.1518412  42.3598671  51.9239426  44.6490097  42.1954489  52.0737171
  47.8591681  35.2212620  24.9814057  47.6537323  35.0551391  24.0613866
  47.0308590  35.5118990  25.3630733  42.1587658  25.6633711  37.1523190
  42.6066399  26.1050415  37.8738236  41.8319082  24.8494744  37.5356865
  54.6121073  18.3991671  53.7902308  54.9256516  19.0283585  54.4398737
  55.3077984  18.3660698  53.1336117  24.7469258  51.2161160  61.6632795
  24.5033050  50.7211399  62.4455118  25.5221748  50.7664442  61.3271046
  21.8841362  13.7697542   8.8345027  22.0918298  13.1255424   8.1576824
  20.9440637  13.6669648   8.9825922  96.5309308  49.5261765  45.1021147
  96.1867903  49.9724865  44.3284178  95.9388934  49.7820759  45.8093882
  52.4668312  43.8615274  58.0010462  51.6204929  44.3010283  57.9186630
  52.6666164  43.5585880  57.1153021  33.5111284  36.4699888  46.9051409
  33.1811929  37.2986746  47.2524929  34.3676710  36.6883111  46.5378523
  11.2154317  32.7566791  62.1811581  12.1230960  32.9571843  62.4095821
  11.2148643  32.7046895  61.2253714  34.5717049  15.5463660  81.1393166
  33.6457849  15.3788698  80.9636688  34.6138930  16.4837897  81.3282394
 112.5521538  48.3473444  38.9607477 112.6259119  47.5816154  39.5303607
 112.6692160  49.0945005  39.5475054 107.5670550  96.2027002  55.2161503
 107.3432801  95.5012346  54.6045113 107.7545879  96.9569183  54.6573830
  18.3788586  26.2512374  24.4875598  18.5432279  27.1619749  24.7320342
  18.5487258  26.2215924  23.5460186  15.7878327  30.3301001  41.8244982
  16.3356161  29.5485568  41.7513275  15.4918694  30.4997349  40.9301472
  47.8667927  57.7166653  60.4913044  47.5699139  58.5137033  60.0521851
  48.4810352  58.0248976  61.1575842  29.8428631  18.3774960  83.9498997
  29.4301009  18.0317175  83.1585121  29.2779183  18.0814028  84.6636200
  24.5961785  69.5731735  77.9778624  23.8335395  70.0391293  78.3206463
  24.8029232  70.0224447  77.1583223   3.1978601  40.5561972  18.3716798
   2.5404054  40.9450102  17.7947819   3.5035044  41.2848949  18.9118779
  26.4028192  50.0693703  53.3844185  27.1635675  50.1749849  52.8131580
  26.0875273  50.9612274  53.5307503  14.8294556  20.2102494  71.3888216
  15.7735264  20.2821589  71.2481356  14.6097338  20.9677529  71.9311714
  36.2750196  54.2830229  36.0807467  35.7459998  55.0092459  35.7506394
  35.6495714  53.7178421  36.5341973  17.4215150  68.4947348  51.2274456
  16.7368746  68.0780268  50.7041359  17.0655394  69.3561554  51.4453173
  28.1163836  56.0076571  88.0698395  28.5596609  55.1981449  88.3236599
  28.1813836  56.0270882  87.1150398  34.5554972  76.6568613  61.0992622
  35.3041959  77.1057177  61.4919615  33.7917185  77.1247387  61.4368534
  39.6678138  41.2257290  61.2065554  39.1108966  41.6868830  60.5793333
  39.0712261  40.6371737  61.6690636  68.1122398  33.4125447  36.4758110
  68.8375378  33.1168103  37.0260119  67.6123714  34.0055394  37.0368099
  21.2827229  69.9419069  59.3598223  21.8681121  69.3133163  58.9374256
  21.8669963  70.6105852  59.7172165   6.1998415  52.6761007  78.2197809
   5.4097146  52.2471476  77.8912544   6.8491071  51.9746971  78.2719183
  55.3810358  42.1532345  57.8653574  56.0879707  41.6495228  57.4619341
  54.9082470  42.5365305  57.1265793  16.0486925  49.8212099  47.9549122
  15.7991540  50.6169701  48.4247255  15.8790362  49.1130924  48.5762167
  49.0333891  30.0620437  53.9250851  48.2005262  29.6780300  54.1991282
  49.6985149  29.5088768  54.3347883  31.5142798   1.8300393  54.8833275
  32.2413158   2.4224231  55.0749826  30.8975410   2.3624834  54.3809605
  13.3505153  99.0691424  55.9034109  13.7694167  98.2431180  56.1451483
  12.7008866  98.8243813  55.2443886  35.2536917  50.0049591  76.3611937
  35.3333092  50.6242752  77.0866919  36.1572790  49.8054171  76.1163664
  50.8977890   8.0670136  59.3736458  51.7002678   7.7627742  59.7975540
  50.2707767   7.3567402  59.5100212  27.6391697  13.1107020  73.4432173
  28.4118819  12.6099157  73.7046814  26.9007111  12.6103425  73.7904215
  24.5792270  57.4145842  43.4212160  24.4594955  58.3105469  43.7361002
  25.1843286  57.4985504  42.6843071  56.5502119  59.3030643  62.1540976
  55.7912779  58.8202810  62.4814653  56.7263985  59.9586010  62.8289795
  35.0197697  35.8332062  52.2894096  34.5447159  35.6006980  51.4916039
  35.8307409  36.2343764  51.9769669  65.8421326  10.6321943  49.9124575
  65.3319693  11.4418292  49.9337578  66.7256594  10.9120536  49.6730995
  30.9841108  65.7672501  62.1265411  31.4889312  66.5756941  62.2148991
  30.0722528  66.0565758  62.0943832  33.2889557  96.8384171  77.1264839
  32.5177956  96.7355537  76.5688419  33.1134915  97.6307297  77.6341152
  31.8771434  68.6548424  61.0576868  32.8077078  68.5129166  60.8840799
  31.8490529  68.9896059  61.9539976  16.1925423  39.5502353  49.2488384
  16.3252652  40.4969931  49.2964888  15.6521547  39.4230819  48.4690666
  45.4379988  23.3636403  79.4962120  45.3057575  23.6046147  80.4130936
  44.9931288  24.0515947  79.0011978  56.2541533  82.3906612  51.5584040
  55.7692766  81.6603756  51.1739445  56.3922834  82.9962826  50.8301306
  32.4616027  60.4725122  24.1777277  32.3578858  59.5326614  24.0288949
  31.5719485  60.8223391  24.1290116  31.9234109  92.8662205  71.6394329
  31.8391323  93.6919117  72.1162605  32.0971322  92.2142220  72.3183584
  35.3428173  27.6694036  71.9692850  36.0812020  27.3820543  72.5063658
  34.6494031  27.8639317  72.5998163  32.2080564  45.9485292  75.2741957
  33.1478071  45.7758570  75.3314972  32.1485639  46.8309450  74.9080801
  25.9668136  56.6323328  46.0055828  25.9907293  55.8024168  45.5292463
  25.2340817  57.1103621  45.6172276  19.0000784   7.0280874  43.7599325
  18.3054173   7.1716225  44.4026423  19.1941655   6.0928196  43.8218689
  18.9940834  40.7853222  68.0849552  19.5784473  40.5352449  68.8006496
  18.6431623  39.9556780  67.7612591  54.1630411  55.5197906  63.1527996
  53.8808203  54.7922802  62.5984383  54.1233778  55.1715708  64.0435314
  18.3285236  80.3392220  43.5405827  18.9148450  79.9697638  44.2008543
  18.3559465  81.2831306  43.6971807  42.2782040  54.3683815  66.1738586
  43.1207609  54.7401476  65.9128666  42.1246719  54.7163343  67.0522594
  35.3661299  62.9967451  43.4381056  34.6241593  63.3658314  43.9171505
  35.5534697  62.1715260  43.8854837  60.4803324  38.6639118  50.8787584
  60.6167459  38.9282441  51.7885637  59.6875715  39.1285348  50.6106424
  13.9366746  45.5591202  23.3745384  14.8105168  45.3107214  23.0729914
  14.0951955  46.1036968  24.1456008  31.3378406  67.9708529  58.4395266
  31.5839243  68.1526136  59.3465185  32.1684217  67.9583549  57.9639101
  28.7646437  67.6649189  62.7628136  28.7758279  67.3645496  63.6715984
  29.2577624  68.4852266  62.7756023  43.6105204  40.2372265  63.4347582
  43.7559605  40.3231478  62.4925804  42.7310753  39.8665953  63.5085344
  73.1621170 103.4230709  68.5227013  72.7445602 103.8270378  67.7619886
  72.9411077 104.0015602  69.2525911  12.4260724  48.0106688  50.0182724
  12.1287465  47.1435452  50.2938175  12.4959028  47.9484081  49.0656567
  28.5400033  19.7446764  78.9030886  28.2697487  20.6147647  79.1965866
  27.7646351  19.3859732  78.4713840  88.5445548 103.5659153  11.3163960
  87.8829432 102.8784497  11.3932144  88.4023667 103.9390357  10.4464543
  36.1176515  79.3423033  52.2036648  36.4862061  78.8934422  51.4427900
  36.1559486  78.6934280  52.9063177  57.6050377  88.5179806  44.8925877
  57.3978710  87.8668880  44.2222166  58.5589218  88.4898663  44.9670982
  41.6344261  74.2791796  68.1708813  40.9548378  74.7006750  68.6969376
  41.2392998  73.4557629  67.8843689  35.8317733  50.5274487  72.5960016
  36.3054037  51.3027191  72.2945690  36.1229587  50.4051685  73.4995985
  52.9590750  22.5070000  69.0457058  53.7884760  22.5432491  69.5221710
  53.2131958  22.3768115  68.1320858  35.0863338  64.4604015  29.3779325
  35.5201149  63.9435291  30.0568366  35.6118298  64.3122768  28.5917091
  52.5099659  18.8175130  87.8067684  52.4141836  18.4554064  86.9258976
  52.4778318  18.0546987  88.3841038  40.9033155  92.0068169  41.0516834
  40.7980251  91.3401508  40.3729343  41.4428234  92.6829052  40.6417131
  40.6101036  12.3108959  84.1746807  40.9122133  11.5029168  84.5895672
  40.9989023  13.0099630  84.7003937  34.8980737  63.5880184  73.2476759
  35.4442215  64.1679907  73.7783241  34.6552968  64.1167688  72.4876022
  35.1557279  23.2555079  40.0784922  34.4713545  22.7599788  40.5282879
  35.6284380  22.5998759  39.5657325  68.3988667  29.9911213  69.7092533
  69.3005228  29.9991846  70.0304604  68.2632828  30.8695722  69.3540478
  17.5681686  72.6825142  60.9977627  18.3605671  73.2194757  61.0007524
  17.8449321  71.8492556  60.6165600  47.4941158  40.6323195   0.8064067
  47.0419264  41.4336205   1.0703626  48.1518078  40.9251499   0.1755951
  56.3797998  24.9641871  60.9424925  56.0483646  24.9319673  61.8399048
  57.3184967  25.1244164  61.0394621  49.8089027  43.4540701  60.9674501
  49.8420382  43.6277628  60.0267220  48.8794374  43.3216143  61.1539602
  11.6087937  39.4500518  54.5912647  10.9016061  39.5051980  53.9485550
  12.2246981  38.8205504  54.2162704  29.4508910  30.5625534  38.4234047
  30.0179744  31.3160992  38.2596517  29.5259929  30.4063630  39.3647838
  59.6859345  36.2106912  88.1532225  60.2461503  36.0480325  87.3943210
  60.0152323  37.0299642  88.5228032  32.9717135  66.7699242  74.9150515
  33.6465430  66.6435432  74.2480707  32.2517633  66.2033701  74.6377087
  49.4420910  20.7573223  35.7427120  50.3799582  20.8266282  35.9211326
  49.3423796  19.9085450  35.3115892  52.5036907  75.2868891  64.9130917
  51.7020607  74.8254156  65.1593971  53.2072020  74.7737885  65.3106213
  47.7429914  26.5655422  42.9346371  48.1797314  25.7320404  42.7592325
  46.8100739  26.3513160  42.9367733  54.3527842  45.9153605  58.4913588
  54.8553514  46.0761261  57.6927280  53.8954830  45.0911379  58.3247423
  36.0910559  41.5659189  70.1036501  35.4917145  41.9192457  70.7610559
  35.5394435  41.4062309  69.3378448   3.9638036  59.7081280  61.2725163
   3.5264912  58.8814974  61.0683870   4.8441154  59.6093178  60.9098625
  36.6673303  39.0897155  53.8324928  37.5282311  38.7383819  54.0597534
  36.2900758  39.3594742  54.6698380  37.3749709  55.6127214  85.8316898
  37.8382540  55.1391268  85.1408195  38.0656624  55.9043455  86.4267826
  44.2462206  55.6681108  53.8602400  43.5987663  56.3000011  53.5475922
  43.7712574  54.8379803  53.8993502  45.2700090  56.8007088  60.5369806
  45.3915834  57.4365091  59.8318529  46.0818195  56.8451691  61.0421705
   8.1948084  61.5204287  55.9335375   7.6220047  60.8515978  56.3087606
   7.8395975  62.3485613  56.2564182  39.4206810  74.1173458  26.0845971
  40.3747892  74.0610266  26.1369562  39.2353177  74.1765022  25.1473832
  50.6650543  50.7064247  68.3543158  51.3286781  50.4045582  67.7340603
  50.8325481  51.6443205  68.4466887  16.9110858  71.3166142  51.9411373
  17.4759090  72.0516157  51.7024326  16.9902229  71.2529945  52.8929377
  22.2580051  46.9191122  59.1755247  21.3142586  47.0129395  59.3050051
  22.4122524  47.2488451  58.2902479  58.2735252  52.6585579  65.0429487
  59.0910625  52.5102234  64.5676994  57.8143358  51.8199348  64.9971914
  27.0178533  24.9487448  81.0825157  27.9103732  24.6746135  80.8715820
  27.1293879  25.6948161  81.6717243  52.6375532  52.3746538  65.8827019
  52.5136852  51.4597654  66.1354160  51.9792604  52.8534746  66.3863039
  42.2486639  57.0292997  55.5733252  42.4130487  56.6796446  56.4490843
  42.6348782  57.9049873  55.5886745  35.6743026  41.6286516  33.9285803
  36.6125011  41.8178368  33.9435577  35.5397820  41.1486340  33.1114388
  25.2655268  43.4399080  70.2748108  25.0200009  43.6876011  71.1662149
  25.6241965  44.2413712  69.8937082  42.5201988  48.8610935  29.0049195
  43.4181499  48.7442398  28.6946654  42.6007652  49.4498920  29.7552919
  43.1656361  88.8947201  37.3366833  43.4605694  89.5923424  36.7513847
  42.3680496  88.5596180  36.9270611  39.0806293  76.7944241  63.4923983
  38.3230782  76.7316818  62.9106665  39.2526412  77.7335215  63.5612106
  47.4704218  38.2296681  59.0207958  47.5401449  38.3454347  59.9684095
  48.0497169  38.8979149  58.6546040  49.3678713  52.6006556  63.0559397
  49.8819399  53.1373262  62.4526596  48.9776659  51.9245481  62.5020027
  31.3441300  68.1681824  32.6435351  31.6187167  67.6784515  33.4187770
  32.1614957  68.3836031  32.1943831  18.0711877  73.9909410  64.0318680
  17.3499262  73.3617735  64.0446186  17.7897549  74.6654272  63.4137344
  49.1129971  50.5556059  65.1444817  49.5639277  49.7788191  64.8135805
  49.2235994  51.2091303  64.4539022  41.8424559  66.7700529  59.0666246
  42.3326778  65.9951448  58.7919760  41.0025167  66.4265919  59.3712044
  37.8221512  57.4036741  57.2089767  38.0835080  56.5798616  56.7975760
  37.5311255  57.9530907  56.4811850  51.3936281  57.8793716  68.5190725
  51.2482548  56.9579983  68.7339497  52.2575808  58.0763054  68.8810587
  43.0399179  48.6644793  63.8915253  43.6829805  49.0219688  63.2792377
  42.9839563  49.3179464  64.5887232  30.3211260  46.8922615  61.1955023
  30.0401735  47.1691799  62.0676327  29.7957754  47.4214697  60.5953550
  33.6144137  59.3295193  51.9243956  32.7760053  59.1616726  52.3546648
  33.5262227  60.2118540  51.5639210  32.1013784  77.5305557  62.2496653
  32.0411849  76.9273520  62.9904461  31.2249470  77.5255108  61.8648624
  34.0336061   6.3682914  60.3383970  34.8181605   6.1765110  60.8521366
  33.3239317   6.3808572  60.9806108  36.5788341  52.7806997  47.4548197
  36.4654303  53.6832428  47.7527952  36.1982989  52.2482586  48.1533384
  62.7236938  82.5562668  68.6714840  63.1321907  83.1835270  68.0749130
  63.0714655  82.7842617  69.5336390  50.3534746  62.6914549  60.4769993
  50.3309011  62.2682142  59.6187496  51.1549759  62.3635149  60.8847666
  16.6999197  43.6494303  40.8592081  16.9964993  43.6605978  39.9491835
  17.5040221  43.7173557  41.3740301  32.3550034  50.8806038  48.5993338
  33.0423856  50.8190536  47.9360485  32.7230382  51.4519739  49.2733622
  33.1146717  61.8064928  49.9755812  32.2409749  62.0186424  49.6471405
  33.5998917  61.5239620  49.2003632  40.4974985  94.9275398  76.8760204
  40.0811672  94.0875816  76.6826963  40.8134365  95.2390957  76.0278749
  59.5450783  69.6648121  62.9624891  58.8984823  69.3676567  62.3223066
  60.3885889  69.5340729  62.5293350  52.9606009  49.6620893  66.5691710
  53.1766415  49.2969084  65.7111502  53.4095860  49.0910101  67.1924782
  47.1410561  74.9150801  50.0445509  46.9929552  74.1918373  49.4352722
  46.9042587  75.6985998  49.5483065  35.5489779  74.5771885  44.8708725
  36.1840487  74.2112064  45.4864836  34.9403644  73.8586283  44.6991301
  18.4683228  81.8556023  62.7339506  19.4188702  81.7527580  62.6879883
  18.1237662  80.9810925  62.5530005  12.9788995  34.1893768   4.0143788
  13.6329222  33.8825774   4.6423602  13.2622528  33.8246107   3.1759942
  40.5552101  53.9436817  63.7050104  40.2501440  54.7937298  63.3878613
  40.9745979  54.1372824  64.5433760  23.6351991  83.1973362  63.9821720
  23.8868237  83.6561298  64.7836828  23.4986901  83.8940716  63.3401728
  23.5251689  42.3876667  77.6799965  23.2600975  41.6415739  77.1421146
  22.9001045  43.0775499  77.4573278  51.6079903  53.1944132   3.1886411
  51.5583706  53.3249092   4.1356045  51.3225508  54.0288782   2.8165865
  23.6447430  26.5569806  55.3091621  23.6627412  25.6092167  55.4420328
  22.8251791  26.8401504  55.7145786  55.6067371  57.9737043  56.8252707
  56.0654163  58.4852123  57.4917603  56.2165117  57.9390430  56.0882473
  59.1595936  53.3437252  59.4416571  59.4350386  52.4703407  59.1631651
  59.2831326  53.8922024  58.6669636  35.3473449  51.7616129  60.7268524
  34.7974777  52.5213528  60.9183455  36.2430382  52.0954227  60.7772112
  36.7335081  83.3099174  39.2192364  36.6937280  82.9802513  38.3214784
  36.9694710  82.5455284  39.7448468  57.1436357  44.6178102  52.6199198
  56.7113638  44.1589022  51.8996620  57.5474358  43.9223099  53.1390142
  10.5065274  39.0322256  39.4876647  10.2291489  39.3891621  38.6439276
  11.2640154  38.4854794  39.2790651  45.4825830  50.2076435  67.2132921
  44.8436022  49.8921919  66.5742111  45.6496716  51.1146975  66.9572401
  30.0892115  49.7691584  59.3326950  29.8866820  50.3669882  58.6131048
  29.4234467  49.0843058  59.2697096  26.4094877  49.8037672  57.8507710
  25.4619431  49.8969316  57.7522278  26.5168858  49.2627907  58.6331034
  39.3726349  56.1663294  75.6815481  38.8820481  55.7424402  74.9773645
  39.6567488  57.0002270  75.3072166  42.5080776  63.3861828  67.6564932
  42.1363926  63.4518194  68.5361385  43.0433416  62.5930166  67.6812172
  17.4168050  41.8349981  50.2842712  16.6238213  42.3481846  50.1291990
  17.4893785  41.7884636  51.2375832  20.3339195  38.8341522  50.4963636
  20.1952124  38.8165545  51.4432955  20.7027125  39.7005510  50.3243732
  15.6456637  52.6430988  61.6958332  15.1094031  53.3736324  62.0040131
  15.2600765  51.8713140  62.1104479  45.7482481  24.9318600  75.7087421
  46.5106821  24.9282885  75.1300240  44.9974823  24.8963308  75.1160192
  44.2562532  32.0596695  38.1962299  44.6859503  32.0584583  39.0515590
  43.8931704  32.9413056  38.1118441  42.2909403  64.7308826  65.4359770
  42.4599361  64.1446543  66.1735487  42.8905201  64.4337034  64.7515678
  31.9529605  57.3687029  36.1936951  31.5177345  58.2013941  36.0108399
  31.7087960  56.8046284  35.4599142  33.2117677  65.5448437  58.3736277
  32.8035736  66.1555672  57.7599287  33.0668497  64.6821404  57.9850769
  91.9074057  92.5823116  66.9409800  91.1375450  92.3418522  66.4254951
  91.8273757  93.5281944  67.0640230  28.6045337  53.2211971  51.3018751
  28.0965114  52.9181767  52.0544195  28.8169003  54.1316748  51.5072012
  21.4496112  65.1528454  52.4841642  22.1194077  65.5743837  51.9457293
  20.6476045  65.6391239  52.2929907  43.2519054  76.3788700  45.7511139
  42.4944210  76.9462442  45.8944035  43.8124418  76.8740129  45.1537323
  24.9292254  63.4568882  81.3454151  25.7550979  63.8463831  81.0582447
  25.0654244  62.5136471  81.2561131  51.7141390  70.6464243  68.9364147
  51.8996668  71.0921669  69.7629261  50.8142710  70.3337383  69.0296555
   8.3367676  72.2119761  16.2500775   9.2265207  72.4810553  16.4784777
   8.3539665  72.1109056  15.2983832  22.8405333  49.4143581  50.2609968
  23.5851502  48.9856339  50.6828642  23.1999993  50.2299261  49.9119091
  58.8903189  24.1733408  43.5656929  58.0000734  24.0811276  43.2263088
  59.3012238  23.3261347  43.3935547  38.6862731  34.5896959  70.4122591
  39.0571046  35.4701352  70.4717684  39.0016341  34.2531657  69.5734930
  27.3070669  45.8659124  30.6074953  26.7885828  46.6659021  30.6936455
  27.5554419  45.8398199  29.6834493  17.2482586  41.4335966  43.7392855
  16.9590819  41.9462013  44.4941664  16.6918397  41.7319536  43.0198288
  42.3905659  50.0746632  37.8520322  42.9069281  49.8826170  38.6348009
  42.9968262  49.9341488  37.1247506  51.9187164  41.5844870  55.9788609
  52.1264505  40.7313633  56.3599920  51.1394358  41.4255190  55.4462433
  22.3132038  70.8409500  40.4435110  22.7204704  71.2466192  41.2088871
  21.6819978  71.4911556  40.1352167  46.5646744  41.4491844  81.4412880
  46.1378527  41.3482475  82.2920895  47.1701431  42.1806097  81.5623474
  27.1184373  64.9848270  81.6341400  27.3755145  65.9005499  81.7418194
  26.9099379  64.6888113  82.5202179  53.3921719  51.2276077  63.5869360
  53.1892157  51.8736458  64.2634535  52.7399445  50.5380630  63.7108564
  40.5951500  43.8113403  56.3044691  41.2424326  43.9203739  57.0011568
  40.7594109  44.5420837  55.7084274  50.6191921  64.3370914  57.5633669
  50.3005743  63.4357977  57.6122379  50.3394365  64.7350597  58.3877373
   8.5699779  47.7930212  58.1550694   9.0780699  47.8266716  57.3445463
   7.7900916  48.3165121  57.9707670  84.0940173   9.9845774  -0.0892818
  84.3555392  10.8412725   0.2482235  84.5246615   9.3568785   0.4910385
  19.2317998  76.0750389  66.0499239  18.8286281  75.2106476  65.9691954
  18.9178824  76.5580797  65.2854919  42.5279188  33.0046082  19.5444179
  42.7975750  32.1526146  19.8873770  43.1485128  33.6244154  19.9277377
  41.6349125  34.7460318  42.4385643  41.5609455  34.9797225  43.3638477
  40.7518959  34.4735694  42.1890163  39.4814038  29.3740129  39.6355247
  40.0046253  29.9573517  40.1852417  39.2640114  28.6375022  40.2069473
 112.0401745  44.4731808  51.6559887 112.4981192  44.5149755  52.4954939
 111.1160015  44.3904877  51.8911457   2.7127537  61.2947655  86.6063976
   1.8281861  61.2668991  86.2417126   3.1503755  61.9935513  86.1201763
  30.7091403  72.3560715  52.9667950  30.4286146  72.3058891  53.8805914
  30.3331637  73.1756067  52.6454926  17.2091150  50.9483433  65.5570316
  16.2643909  50.7987642  65.5938339  17.3012960  51.7880821  65.1069450
  27.5444961  71.2495518  75.9779215  28.2964230  71.3721466  75.3984308
  27.6242352  71.9501638  76.6252375  91.5171839   6.9971115   8.4019959
  92.3590519   7.1630937   8.8261902  91.0211541   7.8057653   8.5295498
  42.4750948  58.8762236  43.9937067  43.0911684  59.5219707  44.3396807
  43.0265713  58.2359457  43.5440922  36.7429447  49.9216557  55.2135706
  35.8443117  50.1174450  55.4788208  37.0055389  49.1933489  55.7764578
  12.5233614  59.9772692  43.5027933  11.6994333  59.8726225  43.0269527
  12.8275180  60.8532381  43.2652950  33.4875107  68.7143850  65.7617331
  34.3283033  68.2624006  65.6909561  33.6653781  69.6014404  65.4491282
  98.0081318  36.4716434  27.0287418  97.7229045  37.3424840  26.7521310
  97.5206993  36.3049889  27.8355050   2.4112332  49.4936848  39.4319320
   1.5101579  49.5513058  39.7496963   2.9446572  49.7903967  40.1692581
 101.1249447  73.4125757  54.0923500 100.7858086  73.9409018  54.8149061
 100.7643795  72.5390434  54.2445421  41.7184258  42.6179409  72.6306629
  42.0722675  41.9384909  73.2045746  42.1316147  42.4544334  71.7828608
  51.9501734  48.9416981  70.4258585  51.5071869  49.6650600  69.9823093
  51.9956970  48.2487154  69.7671223  54.1852903  19.8717487  71.2293625
  53.6684656  20.1748824  71.9758463  54.6837521  20.6414151  70.9547997
  26.1992931  58.7935257  55.7523203  25.8486009  58.2681847  56.4715290
  26.7870522  59.4185638  56.1767006  70.9879017  84.5927906  70.7841969
  71.7254305  85.0622559  71.1739302  70.7761765  85.0919342  69.9953604
  54.4809914  69.3435764  60.9364510  53.7715673  69.6318150  61.5107965
  54.2830849  68.4250450  60.7538033  56.7129230 100.0612640  33.9293647
  56.6369581  99.6633530  33.0621099  55.8158398 100.0824642  34.2625690
  30.5865192  84.9309254  34.5753741  30.4841542  85.4366589  35.3815913
  30.5532861  85.5844784  33.8768148  43.2653093  60.5012226  59.1535759
  43.9488888  60.7751560  58.5420990  42.4761915  60.9473658  58.8462019
  39.4897509  79.4977713  52.2169352  39.1221642  78.7188959  51.7992449
  39.8960829  79.9848032  51.5000486  22.3191118 100.0842476  65.7792616
  23.0439878  99.4593525  65.7620621  22.4853086 100.6226158  66.5530634
  36.6684055  73.4176397  39.3679333  35.7242751  73.2696772  39.3135595
  37.0022941  72.6600504  39.8483539  41.2885380 103.6839771  61.4626408
  41.8878412 103.0342960  61.0952520  40.9583807 104.1623688  60.7021284
  41.8267536  49.4639683  52.5146770  41.5061378  50.3458166  52.3255253
  42.3666286  49.2378235  51.7572927  38.6479759  87.8100872  39.5278478
  37.9966307  87.1141529  39.4403338  39.4837332  87.3486137  39.5969844
  46.3670874  71.7977047  53.0754137  46.9870234  71.8045378  52.3461246
  45.7660294  72.5180769  52.8855896  62.8369808  71.2563992  63.3733082
  63.3318281  70.6511116  63.9255571  62.3738146  70.6918621  62.7544355
  43.3159781  87.4439240  52.8980446  42.6831770  86.7483139  52.7193785
  43.3132601  87.5311565  53.8512564  80.4172421  76.9974136  55.6168032
  81.2776947  77.3220062  55.3512812  80.1267815  77.6121998  56.2905216
  37.8364277  73.4226799  58.5040855  37.7991700  73.3813381  59.4596672
  37.0890284  72.9005957  58.2124376  37.5477290  71.6647673  50.9010935
  37.8163505  71.4261770  51.7883062  37.5448370  70.8367395  50.4208946
  38.3549786  64.8583555  60.9694290  39.2137408  65.0984716  61.3174295
  38.3113050  65.2936649  60.1180553  57.9964066  85.0394154  46.3747740
  58.0499268  85.5761147  47.1655416  58.8484669  84.6065998  46.3209343
  71.9895124  90.6305313  67.6198339  71.7192793  91.3758564  67.0834589
  72.8244972  90.9006977  68.0019903  66.2851238  79.6644640  72.8255892
  66.1749315  79.5234871  71.8852615  67.0530987  79.1423655  73.0576754
  25.6657221   2.6414012  53.8783216  25.9201243   1.7390441  53.6853027
  26.2964632   2.9324245  54.5368862  63.6178780  78.0412102  53.9633465
  63.3983564  77.2375345  54.4346714  62.7801752  78.4913015  53.8542223
  35.1848817  65.8750153  63.7559319  35.5670834  65.2372456  63.1531048
  34.2414951  65.8090258  63.6079359  33.8461852  52.1105909   4.5902860
  34.0353394  52.1480703   5.5278611  34.7073054  52.0871449   4.1729683
  26.9691420  73.7994766  61.1702299  27.2629690  74.0612173  60.2976561
  26.1039305  74.1986465  61.2613583  95.5563927  96.0822582  41.6642809
  96.0458946  95.6792450  42.3813581  94.6375179  95.9475517  41.8961143
  28.5619760  44.9777937  80.3387547  27.7853918  45.5367756  80.3125572
  28.6922312  44.7921848  81.2687016  28.3942771  87.0586681  55.8379841
  28.5421681  86.1306572  55.6558800  27.5007343  87.0963669  56.1791468
  66.1842299  84.8631859  53.9115143  65.7115746  84.8564053  53.0791759
  65.5372906  85.1591301  54.5519209  57.8221655  74.5716953  62.0199966
  57.3474789  74.6643639  62.8460169  58.4873104  73.9071035  62.1992445
  50.8590174  68.7158442  60.2774096  51.2840986  68.6456203  61.1321640
  50.1424837  69.3351126  60.4164124  54.0735626  94.3397141  48.9781523
  54.0008259  93.6383629  48.3308172  53.9306545  95.1431656  48.4778786
  61.9598293  69.3108940  61.6424465  62.7419043  68.7774611  61.7840004
  61.6371679  69.0395689  60.7830811  43.2058001  50.8213711  65.7350063
  42.2546339  50.7850552  65.8359814  43.4097815  51.7565012  65.7222939
  56.6825962  47.8969145  69.8635340  57.4577379  47.3449039  69.7602463
  56.5503216  47.9493761  70.8100986  53.2227516  81.7257023  61.3880968
  53.9459133  81.1234951  61.5630770  53.6048603  82.5966454  61.4961100
  57.0724678  80.2904987  72.4039650  56.9710541  81.1935902  72.7046108
  57.9041767  80.0043297  72.7815819  33.7311435  89.9171162  80.4313469
  33.9208603  89.0202713  80.7068729  33.8982511  89.9185467  79.4888449
  67.7232552 102.2880554  54.2496586  67.0104122 101.6497993  54.2766142
  68.3077860 101.9654369  53.5637474  28.8917637  58.3276463  64.0709209
  29.4495130  58.7620211  64.7162628  29.3837404  58.3850336  63.2518387
 108.1020642  12.7398490  54.7369146 107.6582862  13.5871791  54.7004318
 108.1328202  12.5255393  55.6693077  55.4820871  93.5196590  62.8087521
  54.9391794  93.3865738  63.5857773  56.3289309  93.1380844  63.0400372
  31.2817645 101.6258430  52.1916199  32.1673346 101.2840176  52.0685053
  31.2330222 102.3812675  51.6057968  59.4749165 100.1268387  46.3180304
  59.2729855 100.1521301  47.2533464  59.1570711  99.2720127  46.0274076
  22.1939328   8.5423881   0.4529297  22.9160789   8.4654362   1.0764801
  21.6240743   7.7999432   0.6535923  37.5129342  71.9896126  64.5891571
  38.3132863  71.4741182  64.6888208  37.8187704  72.8595638  64.3324900
  10.0535440  42.7195072  52.9345751  10.9230566  42.3198605  52.9561043
   9.4531387  41.9966888  53.1170034  43.7574100  67.1729803  41.5344191
  43.9895105  67.5670528  42.3752928  44.1288471  66.2915993  41.5723038
  60.8571720  71.1918068  70.3995562  60.7195616  71.5505123  69.5228434
  59.9974251  71.2435150  70.8171558  35.5944347  72.5365257  57.1627283
  35.7966447  73.1574965  56.4629173  34.6664166  72.3347521  57.0431423
  71.5755129  79.4812727  66.0297871  72.2308683  78.8273048  65.7867432
  70.8044386  79.2519093  65.5110741  39.0101051  69.3404865  62.4976158
  39.5754361  68.6147261  62.2332144  39.1786289  70.0239515  61.8489981
  51.1955547  55.6440449  63.2747984  51.8720341  55.6503582  63.9519787
  51.5680170  55.1153660  62.5691032  54.2598391  80.2261829  58.6238480
  53.8263321  79.9401236  57.8198147  54.9288511  79.5608377  58.7849951
  49.5157480  76.8472433  43.0955362  49.1169071  76.1451244  42.5815487
  49.8212194  77.4777222  42.4432898  28.8464856  91.9269848  47.6400757
  29.6087646  92.0065308  48.2135201  28.1396508  91.6423130  48.2193661
  55.6494999  81.5271759  47.6090431  56.0743475  82.2205257  48.1140137
  55.7958412  80.7327938  48.1226349  33.6178184  51.8280935  45.9484768
  33.9185691  50.9336376  46.1088896  34.4223452  52.3400021  45.8652830
  70.2039194  82.3439407  46.6699600  69.4497347  82.1891022  46.1012173
  69.9944115  81.8759918  47.4782658  50.6986856  77.5891781  60.7968569
  50.7554483  77.6683426  61.7490864  50.8541107  78.4764433  60.4730654
  58.4683752  84.2400265  63.1616497  57.5723886  84.2880249  63.4950256
  58.4122467  83.6530685  62.4076223  29.0226960  49.9852133  63.7554693
  28.8559127  49.0710688  63.5258007  28.3262730  50.2078533  64.3732548
  26.0574174  71.6350889  59.1895390  25.8422852  71.2297535  60.0295687
  25.7538629  72.5388527  59.2749643  21.2369299  63.0696535  71.0573292
  21.6416216  62.4731207  70.4275608  21.4477563  62.6943970  71.9122982
  38.1844568  86.5997601  66.9918633  38.6822200  86.9890785  67.7108192
  38.7995195  86.5783596  66.2587404  72.6394415 106.3436985  46.1980200
  73.4202480 105.8288288  45.9943390  72.9576349 107.2437191  46.2682724
  66.0270929 106.3669682  39.7105289  66.7843151 106.0135460  40.1773691
  66.3992977 106.9939327  39.0903664  46.9641781  41.7965269  74.1354132
  46.7084360  41.8713331  73.2160473  46.1500025  41.9260645  74.6218014
  14.6274614  86.9728184  49.7381830  14.5443070  87.8370571  50.1411819
  13.8957286  86.4701939  50.0961971  74.1614628  82.6783466  52.6138449
  74.5402908  83.5335732  52.4106216  73.6664009  82.8212547  53.4205198
  26.6793990  71.9478989  52.7656746  26.5841842  72.6561260  52.1288252
  26.6074634  72.3798847  53.6168194  20.2433181  74.9784803  40.4419231
  19.3258119  75.1357651  40.2190351  20.4992747  75.7436991  40.9568596
  75.8912039  72.3484850  55.9923601  76.5037394  71.9272089  56.5953159
  76.3374043  73.1499195  55.7187891  25.7211947  65.5172300  49.7182274
  25.6142807  64.7836828  50.3237915  26.3842773  65.2191162  49.0955830
  28.3677745 100.8901405  58.6505461  29.1618562 100.3606129  58.5779667
  28.4821033 101.5836048  58.0007267  46.9967175  71.5301418  85.9317398
  47.0952082  71.3389444  86.8644619  47.8917408  71.6591930  85.6178856
  18.6263561  70.1222181  59.1784048  19.5831597  70.1261377  59.2056751
  18.4120345  69.6860743  58.3537388  51.9087362  86.9358063  58.0599594
  52.1111345  86.0147476  58.2240438  51.3525581  86.9237232  57.2810173
  54.3407869  56.7208242  67.6707792  54.3194246  57.3315239  68.4075403
  55.0579071  56.1213827  67.8772783  52.2488451  63.3659458  54.9694824
  51.7937374  63.7856102  55.6995487  51.8712234  63.7696123  54.1880178
   0.8890250  34.8373127  61.8167591   0.0474969  34.4449234  62.0493412
   0.8333037  35.7350850  62.1440697  60.7897282  67.0344353  54.6441412
  60.8978748  67.1031475  55.5927277  61.6054392  67.3827267  54.2842245
  31.9240069  93.2920837  53.8382959  32.6611638  93.4121513  53.2396173
  32.2708440  93.5344028  54.6969080  19.7830248  92.2165775  53.8128138
  19.2268264  92.1433830  53.0372381  20.0714040  93.1293011  53.8154602
  30.0774932  76.2325048   3.9408442  29.9188280  76.3821077   4.8728716
  29.2069030  76.2523746   3.5434678  60.4032850  69.5479679  83.6385632
  59.6523809  69.6381855  83.0518436  60.0831461  68.9994383  84.3546963
  26.3399458  81.6983318  31.2396431  26.4992762  81.1150169  30.4976201
  25.6153750  82.2553635  30.9551430  46.9279671  61.2513304  66.1465502
  47.6867485  61.2286806  66.7296171  47.1171427  60.5894375  65.4814577
  20.6057978  73.6755705  64.7167349  19.7201407  73.7799883  64.3689728
  20.4819942  73.2420301  65.5610991  26.5251899  54.6643066  55.4611349
  25.8407140  53.9952040  55.4562092  26.5195203  55.0061655  56.3551855
  45.7317257  62.3362064  62.1883678  45.5439043  62.6300669  61.2969637
  46.6695404  62.4923992  62.2994471  47.9426813  63.5968971  56.6139889
  47.2275877  63.4501696  55.9948444  48.4451532  64.3171644  56.2332344
  38.3845711 103.5054111  41.5985918  38.7619758 102.7182484  41.2059402
  37.7366829 103.1754684  42.2211742  55.3829241  92.1546078  76.7788029
  54.5825529  92.5717545  76.4600182  55.7211733  92.7589417  77.4395514
  29.0962911  62.0622444  61.4235497  29.4110203  61.7634821  62.2767305
  28.5385585  61.3498211  61.1111069  44.5254755  63.8493681  59.8759508
  44.9075079  64.4909430  60.4748344  44.6005535  64.2540169  59.0117455
   6.9883645  95.9017658  74.1419888   7.5068551  96.6802979  73.9387894
   7.0054382  95.8452797  75.0973701  39.4109941  76.1573267  59.6405888
  40.2285480  76.5730143  59.9145126  39.2090034  76.5597057  58.7958860
  36.2063742  75.2368498  64.1527987  36.3496566  76.1546755  63.9219475
  37.0729136  74.9139452  64.3999386  69.4655371  91.9903088  63.7789249
  69.6883011  92.7868176  64.2607641  70.1091385  91.9504070  63.0715227
  22.2225666  67.6033878  19.1932356  22.8378797  67.7998257  19.8996580
  21.8601084  66.7476130  19.4223762  39.3093657  43.9066982  43.4100437
  39.6736312  43.2649803  42.8003407  40.0032139  44.5576096  43.5155058
  54.6346092  70.6885529  52.1699047  55.2565622  70.0928354  52.5876760
  54.4673872  71.3615370  52.8297186  40.9870815  71.6687679  67.3902988
  40.8381367  70.7265759  67.4697638  40.7524681  71.8728304  66.4850092
  38.8682032  76.0358429  49.2673874  38.9033270  75.0938988  49.1008425
  39.0790319  76.4362335  48.4239006  38.9059234  85.6274986  28.3356977
  38.1893659  85.1113701  27.9664016  39.6723223  85.3766823  27.8199911
  37.4528003  69.3833685  56.4985228  38.0713797  69.9333048  56.9793129
  37.6007676  68.5014820  56.8400192  59.3905735  82.4757671  48.4853888
  59.7926331  82.1130371  49.2747021  59.7323132  81.9358063  47.7727222
  47.2475624  90.2939796  37.6789165  47.8514194  89.6094322  37.9669833
  46.5119505  90.2365875  38.2886815  82.2336245   1.3914680  71.3449574
  83.0476333   1.1168479  71.7671013  81.5424109   1.0185623  71.8921328
  44.7893572  82.6389790  60.3156996  44.0948963  82.6367378  60.9744501
  44.4519615  82.0871258  59.6101093  62.4377584  69.2099953  69.0356398
  62.4013996  69.9370575  69.6571589  63.0711365  69.4909000  68.3752155
  44.7871017  60.4883528  44.4786119  45.6261301  60.9097624  44.6648359
  44.8669624  60.1849413  43.5742950  59.8454142  72.5787306  62.9066563
  60.0328493  72.7867317  61.9913244  59.6230221  71.6477442  62.9000235
   8.0086529  24.3069601  49.7368622   7.6373786  24.5511198  48.8890553
   7.5826150  23.4780550  49.9551344  31.7394829  92.7610493  39.8656201
  32.1260381  92.0263672  39.3891191  31.9511628  92.5893593  40.7831955
  35.6560540  63.6962843  58.6655045  34.8336172  63.9053345  58.2226419
  35.6541324  64.2484379  59.4473934  86.0991478  85.5603027  86.0068130
  86.1255455  86.2544727  85.3482819  86.9841194  85.5420017  86.3711452
  40.5885839 100.4335594  43.1898546  40.8858967  99.5663548  42.9145527
  41.2704182 100.7422638  43.7865400  38.4642196  44.2604446  76.3457584
  37.6947784  44.0205526  75.8293819  39.1999006  44.1549110  75.7425404
  58.6831951  78.0686665  74.8669910  59.2290688  78.6678171  74.3578100
  59.2988777  77.4287510  75.2243137  64.7622967  77.2263432  44.3369913
  64.6377897  77.7607727  45.1212835  64.3018198  77.7033091  43.6465597
  51.4189100 104.2569256  50.4954958  50.6151199 103.8142776  50.2230740
  51.1643124 105.1739025  50.5983162  31.0657358  88.0031681  62.5154352
  31.1545706  88.4592342  63.3522940  31.1310434  88.6952209  61.8573904
  19.7150636  65.2142096  67.2517920  19.1568506  65.1336384  66.4784002
  19.7126663  64.3397427  67.6410627  69.5761300   8.5503196  49.1335154
  69.7405244   8.9652061  48.2867098  68.6220313   8.5112762  49.1998959
  62.0200682 104.3140602  48.1460142  61.7034006 103.5571289  47.6530504
  61.2389755 104.8470688  48.2944250  19.1315234  45.5392504  36.9542670
  19.9063444  45.3297281  36.4327455  19.1354299  46.4944553  37.0159149
  55.4874849  56.0894394  58.7444210  54.9719858  55.4667664  58.2318163
  55.6228638  56.8310928  58.1546259  50.6679249  69.2708969  47.8838921
  51.1728096  68.5519123  47.5039196  49.8367739  68.8709211  48.1397104
  60.5961657  84.6757317  86.1139297  60.5595827  85.0482559  85.2329540
  61.1022520  83.8696480  86.0122871  50.4079342  77.6032114  40.4707384
  50.1191664  77.4050903  39.5799017  51.3477182  77.7647924  40.3875256
  31.4709067  30.6114721  31.3537908  32.1726847  30.0324464  31.6512227
  30.6788921  30.2534556  31.7547512  36.7429638  98.6625957  20.0096130
  36.0447073  98.2916069  19.4701374  37.5510931  98.4026337  19.5673800
  29.3801808  78.7167215  23.3789945  29.9329877  78.1367159  22.8553224
  29.1478300  78.1962347  24.1479802  72.2090530  73.0589485  72.4709177
  71.7331839  72.5389910  71.8232870  72.9116344  72.4825096  72.7714682
  58.9290762  80.6902504  52.4965286  59.0361834  81.4288235  51.8971443
  58.2616949  80.9810162  53.1180525  21.4661837  86.4525318  65.2514219
  21.1560106  87.1300507  65.8522367  21.9460535  86.9324303  64.5763969
  47.9911041  60.6260395  61.4905882  48.9266872  60.5218172  61.3172245
  47.7071857  61.3015318  60.8746862  35.7021451  65.6512022  54.6283197
  36.3748217  65.1406527  54.1776800  35.4736114  65.1236486  55.3936243
  27.7694178  81.0083294  64.4084930  27.7512407  81.2330151  65.3387690
  27.0202684  80.4247379  64.2883635  69.6133995  78.5442829  42.5458336
  69.2767239  78.3089972  43.4104252  69.0584707  79.2708445  42.2622967
  63.1241226  79.5746517  35.4824758  62.3465252  79.0187454  35.5329204
  62.9660797  80.1394939  34.7260284  45.8433962  88.2875347  81.4846230
  45.2332592  88.2223034  82.2192764  45.2838755  88.4229660  80.7198906
  96.0834743  26.0337526   1.9319164  96.2066557  26.7486460   2.5564110
  95.7495572  25.3089172   2.4604427  50.8891344  88.0804348  52.0483971
  51.0101509  88.9543533  52.4196720  50.6786823  87.5275517  52.8008986
  68.9547348  99.3889809  61.4163065  68.2805061  99.7495270  61.9921970
  68.6166048  99.5326233  60.5324125  44.8751307  89.4561672  79.2394400
  44.0041876  89.5786095  78.8616848  45.3714371  89.0057182  78.5560608
  94.6434498  47.2789764  48.9370775  94.3522167  47.3507786  49.8460674
  95.5987072  47.2543478  48.9928627  81.9825840 104.4785118  49.2599106
  82.8601551 104.4278622  49.6387768  81.9759750 103.8047600  48.5800171
  49.7022867  81.4919949  51.6810989  49.4988966  80.6128883  51.3616610
  49.7343159  82.0322514  50.8915949  43.1300068  71.3786745  43.5576296
  43.3624172  72.1140194  44.1246319  42.2283936  71.5577173  43.2906675
  79.3231201  98.9099789  36.4188385  79.6570301  98.9560604  37.3147249
  79.2241621  97.9733658  36.2479925  76.0532808  97.8230858   9.7400928
  76.7286587  97.4857521   9.1516221  75.9614134  98.7441349   9.4962674
 104.6223069   3.8749980  33.7782359 105.1286317   3.1635665  34.1703153
 105.2790690   4.5198821  33.5155129  91.5271091 103.5305691  30.5315781
  90.8067036 103.5209942  31.1617756  91.3924599 104.3321514  30.0260329
  55.9307051  90.7868862  38.5235906  55.8123064  90.0403500  37.9363179
  56.1394405  90.3941154  39.3711734  84.8241711  52.0415068  47.7413845
  85.3977299  52.6711321  47.3045444  84.6663380  51.3645744  47.0832920
  93.0286598  79.4893122  31.0811138  93.5911942  80.0827789  30.5835366
  93.5520363  78.6947393  31.1858630 110.0006485 103.3264065  73.0015612
 110.9406757 103.5060596  73.0191183 109.6622181 103.7437153  73.7937450
  78.3514977  80.7977486  75.3569174  78.4486723  81.7290020  75.1580048
  79.1977262  80.4141140  75.1268148 102.0154095  69.7880697   4.6245748
 102.8459263  69.9717951   5.0635791 102.2381878  69.7562456   3.6942050
  84.0185547  65.8733034  72.5586128  83.8305759  66.3492680  73.3675337
  83.2976055  65.2492476  72.4748468  32.1320176 104.6124649  59.9824810
  32.3466372 104.8193359  60.8920813  32.3392177 105.4125404  59.4995832
  28.7481594  96.0341454  28.1631565  27.8532767  95.7239914  28.0245233
  28.9443302  96.5553093  27.3846102  18.2063916  31.4894468  20.2360642
  19.0907768  31.2115652  19.9975788  17.8101733  30.7134134  20.6323158
  78.6185217  80.1928139  52.8823185  78.6933088  79.3472338  53.3246183
  78.6086750  79.9754858  51.9501686  48.2976484  77.6790142  38.1559610
  47.6907444  76.9589520  38.3274436  47.8816938  78.4430790  38.5552287
  47.3301411 106.6575623   9.7643918  46.9489670 106.6153336   8.8873768
  48.1134176 106.1098957   9.7117424  13.0193710  78.6477709  66.4119434
  13.0591524  77.7512503  66.0789204  13.4500110  79.1731071  65.7375526
  70.9131670  92.8963757  33.8073373  70.1338100  93.1781960  34.2863083
  71.5215111  92.6084423  34.4879580  35.6307316  81.0542011  89.9739838
  36.3780880  81.6421318  90.0836468  35.7080722  80.4311752  90.6965351
  52.4125862  74.7641945  68.1120729  51.5106821  74.4778061  67.9679346
  52.7464581  74.1734838  68.7872171  78.7361431 103.3054638  62.3835468
  78.8714361 102.6191902  63.0369520  79.1460133 102.9637527  61.5888977
  42.2501898  72.9158497  61.4381933  41.3921547  73.3394241  61.4138222
  42.1593380  72.2285318  62.0981741  60.0067568  99.1173458  83.8096714
  60.5276823  99.9121475  83.6950016  59.3057871  99.3747139  84.4085312
  71.7894411  74.3971729  76.3589430  72.3475266  74.7748089  75.6791115
  72.2260952  74.6232271  77.1801996  68.6255980   7.2838592  51.7829037
  68.7918068   7.2962570  50.8403254  69.0258265   6.4688777  52.0859861
  75.4966497  75.8396101  77.5757551  75.8410120  76.4365768  78.2400417
  74.7226906  75.4497242  77.9822206  65.6626558  73.3726835  48.9286423
  66.3983870  73.2651711  49.5314455  65.9314871  72.9064894  48.1370497
  85.9954453  86.9426727  19.9756098  86.7191696  86.8650246  19.3539786
  86.0510063  87.8427124  20.2966738  61.4159775  90.6116486  52.2446156
  62.3549795  90.4782200  52.3738480  61.2227726  91.4238071  52.7129126
  37.0912814  82.2305298  15.6613755  37.4530745  82.9729366  15.1774657
  36.9520497  82.5666618  16.5467358  45.5391598  99.5785713  37.8506351
  46.2702274  99.2073822  38.3445954  45.3030205 100.3715706  38.3318996
  90.0619460   8.0017566  31.4458179  89.6665955   7.5901794  30.6773520
  90.7779599   7.4152660  31.6899037   5.1749090  21.4422495   7.5577461
   4.4923356  21.0455210   8.0989754   5.2185157  20.8850128   6.7806923
  64.0776157  73.5418177  81.1654091  64.2077923  74.4893074  81.2047100
  63.4740591  73.4131241  80.4337120  45.1028490  70.6739998  37.5322080
  44.6842766  70.3430271  38.3268690  44.3831635  71.0365009  37.0156050
  51.3041592  88.1726646  33.5643315  52.0460558  88.5622978  33.1017256
  51.5836239  87.2769642  33.7536907  26.5419078  77.0609522  69.4546938
  25.6197023  77.1729231  69.2239761  26.7269993  76.1417103  69.2624331
  73.3143759  80.5118561  67.8649139  74.1712475  80.7295227  67.4980021
  72.8017855  80.2114105  67.1144342   7.6497318  87.8090382  31.4979553
   7.5963260  88.5994625  32.0351791   8.2812740  88.0274487  30.8126283
  75.4171705  83.6543465  15.2293456  76.1988831  84.1116714  15.5392027
  75.1039839  83.1705570  15.9936023  27.1331286  74.4144535  69.4573784
  26.4461064  73.8822317  69.0561581  27.9041719  74.2617035  68.9111233
  36.5417433  61.3238049  70.9156656  36.7376614  61.5898657  70.0172997
  36.8116522  60.4064274  70.9580374  77.2741032  92.4345207  53.3663464
  77.6152134  92.9734230  52.6525831  77.9250669  92.5196552  54.0629292
  21.6835215   0.8336925  54.0793896  21.6451170   0.6960868  55.0258684
  20.8608725   0.4708576  53.7510300  49.1489744 104.1155148  62.6729250
  49.5408773 103.8503742  61.8408489  49.1225719 105.0714493  62.6314116
  95.6046725  19.6099376  57.8495026  96.0700799  20.1708030  58.4700394
  96.2980462  19.1692066  57.3583603  82.3219013  86.9538307  75.0804901
  82.4383259  87.9039288  75.0800991  82.3270988  86.7122746  76.0066891
  79.9428988  66.3161755  56.4617395  79.6612597  65.5855083  57.0122242
  79.2102814  66.9316769  56.4874125 110.1644230  86.8978405  57.2412205
 109.6488571  86.8916035  56.4347601 110.5150318  87.7869225  57.2944784
  79.1274452  72.8936338  55.3825951  78.9823055  73.7668562  55.7468081
  80.0379562  72.9054880  55.0875473  30.4030323  87.2905445  44.6294403
  30.3528929  86.5867424  45.2762651  29.6202469  87.8180408  44.7882843
  64.9377489  99.4264603  45.4101944  65.5983973  99.0634251  46.0000992
  64.1024208  99.1489124  45.7862568  48.9247322  83.0332851  56.2423754
  48.9558887  83.8396072  56.7572641  48.1617737  82.5634289  56.5790796
  52.0940828  80.2901936  52.2736073  51.3203096  80.0997257  51.7432880
  51.9730997  81.1964512  52.5569487  81.8500519  68.3902407  48.3896065
  82.2748947  68.5171843  49.2379093  82.4636078  68.7627268  47.7563286
  66.1512136  70.8007097  52.7174044  66.1853075  69.8443747  52.6952267
  66.1794043  71.0198450  53.6487579  53.6849213  96.4229107  46.9671965
  52.7608871  96.6117859  47.1306515  53.6744118  95.6803703  46.3632393
  37.6321983  83.7293434  57.5323486  37.1306515  83.0133724  57.9223061
  37.3637915  84.5054340  58.0241537  31.2669280  32.8481180  12.2514450
  30.8733800  32.0030767  12.4688065  31.5720609  33.1931478  13.0905449
  31.8004084  88.7668037  42.6211119  31.5011907  88.1498623  43.2890081
  31.2471437  89.5383835  42.7427149  59.7404289  79.1842508  58.4682035
  59.6867418  79.5006323  57.5663948  60.1555729  78.3247709  58.3961821
  42.8226995  90.9624577  77.4772215  42.7957582  91.9160175  77.5562191
  42.6643467  90.7945156  76.5482712  64.2310810  89.6352005  36.2469959
  64.2500114  90.5715942  36.4445424  63.7316227  89.2487144  36.9663048
  27.7065516  64.0799761  48.3395481  28.2722878  64.1807604  47.5740337
  28.1532693  64.5654488  49.0330839  70.6733656  94.5155430  47.1716022
  70.2367687  94.0829849  46.4377737  70.0577784  95.1933002  47.4507570
  54.2033100  76.5231323  52.2333002  53.4094191  76.1092806  51.8946314
  54.6754789  76.8107653  51.4519167  21.7107368  94.0577698  66.0249090
  21.9519877  93.4644508  65.3135777  21.1017466  94.6776962  65.6235886
  57.5830317  84.2234993  53.2033682  56.8184233  84.5948029  53.6435318
  57.2171593  83.6287117  52.5486946  63.9504719  86.0985184  19.3052042
  63.6239719  86.6038895  20.0496721  64.7946835  86.4982891  19.0961146
  59.5868635  98.3191967  68.1135798  60.1950741  98.9059639  68.5630465
  58.7551737  98.4394836  68.5719013  82.4828720  96.8153858  50.1648569
  81.6651344  97.3073196  50.0903797  82.2447872  95.9182072  49.9311638
  49.6703720  78.2609797  48.0740833  49.1446066  78.9569712  47.6798773
  50.5384064  78.3668184  47.6847887  56.6071224  89.3122578  27.4266601
  56.6742039  88.7699127  26.6407824  55.6783056  89.2868519  27.6566339
  49.8218489  57.8820133  62.7156067  50.3271389  57.0691442  62.7280617
  50.4184961  58.5291719  62.3395300   4.4876817  60.7570249   1.0603344
   4.3005708  59.9295980   1.5037167   4.9959901  60.5058844   0.2891075
  69.1415977 101.2642479  70.0044775  68.9272594 100.6901836  70.7398272
  69.6831369 101.9536591  70.3887558  38.0926251  83.7379742  60.7257032
  37.7397633  84.5283031  60.3169107  38.8074660  84.0531349  61.2787914
  24.4699931  98.3236027  66.1633348  24.8674488  98.7328815  66.9319344
  24.4162154  97.3945904  66.3875628 112.4316693   5.0898075  51.7854214
 112.4881936   5.8186626  52.4033213 113.1550742   4.5123767  52.0293283
  96.0427570  80.0006485  49.9921227  95.1438618  79.8261929  49.7132111
  96.0800552  79.6812344  50.8936834 106.2010002 106.1282825  85.6571388
 106.1855984 106.9369030  86.1691284 106.8744469 106.2777615  84.9935436
 109.3811799   4.6290779  66.7129850 108.9298631   4.2175197  67.4499798
 108.9523316   5.4790878  66.6139555  76.6552067  94.5612526  38.6926723
  76.7842579  94.3752670  37.7626252  76.3351107  93.7371445  39.0595675
  37.7663326  98.5895824  59.5886183  37.9568815  98.7763977  58.6693668
  36.8113685  98.6203480  59.6463203  72.3599853  63.1206972  10.1498043
  72.8453539  62.4568445   9.6599590  71.5157960  63.1789667   9.7023880
  86.9326878  59.7139311  63.1875658  86.9061947  59.1595793  62.4076796
  87.8645611  59.8000860  63.3886290  64.9474287  78.8848257  59.5926476
  65.8930969  78.9785814  59.7073269  64.6337128  79.7778893  59.4503450
  23.8347650  81.0151005  82.7848339  23.8974500  80.0650692  82.6861477
  23.6770678  81.1489391  83.7194252  86.9444180  96.9187641  63.2147408
  86.6874695  97.8149509  62.9977989  86.5172005  96.3793755  62.5493240
  60.2322435  94.2331123  88.5762215  59.8465204  94.6479893  89.3477917
  61.1504889  94.0984249  88.8105488  42.5995874  67.5028419  66.2943792
  42.0185184  67.6883841  67.0320559  42.5735331  66.5504074  66.2026262
  69.3294144   2.7940082  34.8815155  69.7408176   3.6582088  34.8930454
  69.8710776   2.2630691  35.4654145  48.3211517  63.6117554  62.0489502
  48.6123943  64.4960690  62.2711992  49.1160870  63.1631184  61.7607880
  77.5367880 106.1410236  47.8459597  77.1442652 107.0139694  47.8353405
  76.8350697 105.5665970  48.1523132  29.2286706  89.1932106  57.1454334
  28.4868813  89.7981262  57.1529388  29.0271139  88.5757732  56.4423132
  49.0492201  80.6319046  69.4831991  49.0646172  80.1584339  68.6514425
  49.9710751  80.7217979  69.7247267  65.8062315  85.3536701  56.5719604
  65.6356859  86.1278248  56.0354567  66.7448044  85.1947689  56.4716434
  34.7842479  87.5096607  22.4172926  34.7484469  87.0955372  23.2795262
  33.8678455  87.6616573  22.1863532  14.9388125  17.7633857  39.4190001
  13.9940360  17.7731704  39.5724368  15.0540163  17.1765804  38.6715961
  56.5687895  81.5465832  61.6238308  56.1419106  82.3780155  61.8305206
  56.2280464  80.9338856  62.2755337  75.1250316  14.6707439  75.8565521
  76.0638285  14.8565769  75.8755302  74.7265268  15.4823017  75.5422354
  39.8488450  69.8993349  49.4335079  39.3921208  69.1407347  49.7970438
  40.5827141  69.5258474  48.9454794  51.0903549  81.8780136  57.5184345
  51.4681578  82.5059795  58.1341934  50.3638268  82.3495674  57.1109724
  37.1525073  93.3192539  82.7966690  37.1720600  93.1570053  83.7398243
  36.4115834  93.9120865  82.6709366  92.7632236  97.3150635  65.2472115
  93.3288288  97.6376534  65.9488201  91.9304276  97.7666473  65.3841782
  85.7429314  91.0375214  52.9402018  84.9329185  90.5980492  52.6813889
  85.7355022  91.8606186  52.4516439  74.4190311  88.0531216  45.9400845
  74.4625092  87.7714062  46.8538523  73.8211489  88.8005924  45.9480858
 108.0517007   5.0619697  51.7926502 107.9076053   4.1406154  51.5768480
 108.8771487   5.2827548  51.3612318  93.1577206 105.1490211  43.8362885
  93.9684010 104.6812725  44.0368605  93.0945110 105.1202583  42.8816128
  63.8147402  81.8535519  61.2994385  64.1704369  81.6462517  62.1635771
  63.0849266  81.2442398  61.1883640   3.6277250  56.5671331   4.7631657
   3.4876540  56.7306311   5.6958401   3.9145902  55.6549436   4.7203457
  65.3646278  77.3104143  74.8119593  65.2523661  77.6294851  75.7074022
  65.8704042  77.9957008  74.3751478  72.1507597  77.8174114  41.9633102
  72.6547480  78.6263800  42.0516300  71.2787724  78.0417967  42.2881508
  83.3648205  87.8077316  27.1400142  83.9218426  87.1388054  26.7418981
  83.6674786  88.6308098  26.7563796  24.6262363  35.5308992   7.9924023
  25.2593139  35.4569704   7.2782814  24.4882825  34.6298296   8.2844269
  49.5950079  76.0621977  54.0775585  49.9355507  75.3241158  54.5830345
  50.3591681  76.6161251  53.9180183  78.5586786 102.8429604  48.5839844
  79.1422176 102.7572823  47.8300762  78.6618757 103.7522602  48.8646221
  78.1462240  84.6012306  90.2124596  78.6571693  84.4194889  89.4237041
  78.6218834  85.3083515  90.6483078 105.5079509  15.9415912  48.1234598
 106.2348414  15.6643485  47.5657892 105.8474112  15.8649063  49.0151501
  48.4553432  77.0109558  56.4660120  49.2963314  76.7582083  56.8469143
  48.4001398  76.5089321  55.6528950  45.4725027  97.1310043   6.1658388
  44.5552206  97.1396732   5.8924359  45.9586191  97.3854446   5.3815013
  76.4028645  39.8755312  14.9638247  75.5859041  40.3019333  14.7049999
  76.8314457  39.6567392  14.1363704  97.1592093  96.0662253  10.2607166
  97.5533248  96.1207802  11.1313069  96.6358758  96.8640454  10.1842987
  53.8829231  71.0462141  58.9482546  54.3760443  70.7267952  59.7039223
  53.4096289  70.2779150  58.6289597  75.1210260 101.5456390  47.4054193
  75.0661802 101.9586468  46.5436459  75.7548761 100.8374500  47.2917128
  58.5160732  95.9668064  28.2881069  58.5048485  95.9947681  27.3313808
  59.1990137  96.5892410  28.5379148  64.9340868  62.9709053  27.8709102
  64.4644356  62.7193546  27.0756841  65.0489140  62.1507168  28.3508396
  12.0882666 104.7637653  17.5092459  11.5362644 104.7782421  16.7273796
  12.4667394 103.8846207  17.5189841  62.1986389  87.2469616  31.5926003
  62.8671932  87.5733662  32.1948695  62.4017954  87.6688766  30.7577658
  50.8630371  77.6923180  85.2917957  51.6629267  77.7240801  85.8165836
  50.1691341  77.5048828  85.9239388  98.8285587  39.3913476  88.2183385
  99.0885756  39.5919626  89.1174361  97.9495547  39.0213506  88.3001104
 104.8477077  58.6943579  16.1164498 105.1443768  58.6353874  15.2082968
 104.0861988  58.1158781  16.1576974  46.6786289  78.8558054  57.4832678
  45.9183359  78.5511637  56.9879103  47.4159908  78.3709335  57.1125507
  42.7617741  82.2874737  62.2485161  43.0616379  81.3918018  62.0933247
  42.8013945  82.3919773  63.1991720  71.8419793   6.0026819   2.0492279
  71.2220624   6.5911800   1.6184055  71.2914804   5.3926832   2.5402367
  58.3574057  77.0745134  38.1432700  59.2692804  77.3601055  38.1994009
  57.8735542  77.7139187  38.6660314  34.0019536  91.1572361  52.5846767
  34.4699097  90.4395676  52.1578264  34.2554259  91.9363403  52.0897341
  44.4670534  76.0473585  36.9147635  44.0426350  75.7670259  36.1038899
  45.1037312  76.7057753  36.6366267  76.2450123  59.8646164  55.8071613
  76.2767935  60.7371283  56.1995125  77.1292686  59.5171833  55.9238386
  33.6682868  98.8245106  66.0138178  34.4724274  99.2764759  65.7582331
  33.9693975  98.0164623  66.4292908  65.3894424  54.6843576  34.0228415
  66.3310337  54.5603418  33.9034295  65.2138901  55.5516148  33.6577606
  36.8145421  39.0414888   8.9498341  36.5620521  39.7122843   9.5842755
  37.7685502  39.1035826   8.9024937  13.8877821  67.9852915  38.7693262
  13.3147502  68.0996227  38.0111742  14.7653151  68.1742144  38.4369469
  58.1189442  78.8291740  67.8294992  58.0498457  79.4944763  68.5142088
  58.8471127  79.1233778  67.2822857  58.2918596  80.7546711  69.9175262
  59.2404127  80.7857323  70.0420952  57.9502821  80.4433250  70.7557535
  59.7284651  96.9803143  71.8502855  60.6281996  97.1070862  71.5492105
  59.7993898  96.9327545  72.8036690  49.7053051  95.9815025  48.8044882
  48.8967419  95.8357143  49.2956209  50.3863525  96.0354710  49.4749308
  22.9673600  60.4120398  57.1342993  22.6016116  60.1962757  56.2764454
  23.7959409  59.9340057  57.1685123  85.4030895  86.8552399  48.3447981
  84.7492409  86.1654854  48.4586668  84.9088669  87.6703930  48.4313202
  75.6586958   0.6282710  26.2790346  74.8118902   1.0734939  26.3095188
  75.4396916  -0.3035260  26.2836123  77.8149986 101.7514420  53.0701590
  77.9736662 102.5845242  52.6262617  76.8614960 101.6712952  53.0953836
  41.5420198  78.4185362  61.8857574  42.2756910  79.0302229  61.8241215
  41.9534874  77.5612020  61.9948626  64.8891497  69.9074650  44.4718695
  64.7200918  69.4037867  45.2680874  64.0717983  69.8540306  43.9765835
  69.3945789  89.9767590  32.6448750  68.8958740  89.2499352  32.2717190
  69.0784216  90.0466633  33.5456467  39.2782092  88.9447975  75.8214092
  39.9614739  89.0386772  75.1576567  38.4780478  88.7859631  75.3206635
  61.1493206  96.2049484  57.3795748  60.4679394  96.8556595  57.5484705
  60.6781244  95.3736019  57.3241997  67.5145960  76.8136501  47.8612995
  67.0865870  77.5742674  48.2543612  67.4793434  76.1409664  48.5413647
 105.7026245  45.2465135   1.3009751 106.4612629  45.6603796   0.8893692
 105.9225704  45.2153761   2.2320378  64.5954704  74.6984196  57.6557159
  64.0559816  75.0365067  58.3704758  64.3103075  75.1915503  56.8864727
  12.4291730  91.5528584  28.8879895  13.2696390  91.1580372  29.1202855
  12.6586878  92.4077415  28.5236549  42.5744009  83.8924694  50.7459402
  42.6698685  83.4073544  49.9263191  42.0272541  84.6438313  50.5172110
  91.1510658  95.7125854  71.6467619  91.4760303  94.9028301  71.2531567
  91.5180779  95.7132816  72.5308037  58.3867884  85.3317642  25.6376624
  58.9826059  85.9318447  26.0861373  57.6727724  85.1935482  26.2600040
  44.1068316  77.7435398  71.7064190  44.7068977  77.0054007  71.6001272
  44.6047211  78.3861160  72.2118282  73.1553602  99.9521828  63.3158731
  72.7243805 100.2939129  64.0992737  72.8417778 100.5127621  62.6061869
  46.7109585  67.1411467  50.9519386  46.9815493  66.3006926  50.5822802
  45.7687664  67.1825790  50.7882500  35.5565118 105.2129818   8.0713737
  35.1743697 105.2078108   7.1937799  35.0260686 105.8424429   8.5598814
  14.5339873   2.0494174  62.2314930  15.0764468   1.8614768  62.9974270
  14.5716956   1.2483501  61.7089081  24.7962618  83.7132931  57.2182131
  25.6201339  83.7027168  57.7054024  25.0537848  83.5617065  56.3088512
  91.2021542 103.8377094  86.2848282  91.8393230 103.1719303  86.0260201
  91.7337418 104.5651531  86.6080475  85.0975418  93.7281990  52.3056650
  85.2709961  94.6643162  52.2064924  85.0089836  93.4047222  51.4091396
  27.5725341  90.5236340  71.0741901  28.0813265  89.7856140  71.4098644
  27.9762483  90.7290745  70.2309561  16.6512301   3.3004760  60.9720755
  16.3009360   2.4629688  60.6685877  15.8900835   3.8798141  61.0072994
  32.3132920  83.3050632  42.6027679  31.5817118  82.7597237  42.3135805
  33.0897999  82.8713989  42.2489309  59.8628950  77.8102207  44.3930435
  59.4599152  77.6650429  43.5370302  59.1265106  77.9935551  44.9764395
  76.6842985 103.2815647  57.0464516  75.9153891 103.6386490  56.6020489
  76.5069914 103.4162998  57.9773855  27.2149471  18.9370567  15.7787621
  27.3752979  19.6465189  16.4009964  26.2974695  19.0421516  15.5269253
  73.9910078  78.5583067  73.1748724  73.2901859  79.0555286  72.7531528
  74.6119165  78.3744955  72.4699497  62.8554678  67.7391195  75.7313967
  62.0754385  67.8611088  76.2726021  63.4129286  67.1531248  76.2433386
  80.8564091  81.9554901  32.1847892  81.4221001  82.7166271  32.0547771
  80.7303429  81.9098663  33.1325531  70.3669453  83.2012749  41.1504841
  70.4325199  83.9116287  41.7887068  69.8493910  83.5696220  40.4344606
  56.6555023  89.1228104  79.1536331  57.3368692  89.4917393  79.7156477
  55.8483362  89.5457172  79.4466639  54.0453959  84.4684219  61.6038084
  54.1509628  84.2999840  60.6674814  53.9364433  85.4173946  61.6656590
  25.3685784  84.8858166  43.2052517  25.1380014  84.3652821  42.4357653
  24.5558643  84.9435997  43.7076330  33.1281045  19.5002253  22.4586117
  32.8993038  19.1104347  23.3023846  32.3364785  19.4061644  21.9287884
  58.1260061  88.5613632  29.5845342  57.4473906  89.2144585  29.7553873
  58.5313320  88.4082031  30.4380488  54.1150570  60.8217096  58.5390282
  53.8123941  60.3605652  59.3213177  53.5698366  60.4769945  57.8318214
  67.8604269  72.4198103  17.9540849  68.5036278  71.9658709  18.4985685
  67.4073362  73.0077648  18.5584462  51.8204975  88.1332207  60.6126738
  51.5183258  88.1509495  59.7045946  51.1502361  87.6331615  61.0784149
  57.7613115  86.9707680  89.4233513  57.4399900  86.0843372  89.2583561
  58.1321859  86.9308853  90.3048801  43.7034225  90.6462955  41.9559097
  44.4962311  90.6301689  41.4197922  43.1433773  89.9695206  41.5757084
  29.0237427  47.2307777  63.5418701  28.2359147  46.8353891  63.1687403
  29.2250705  46.6892433  64.3050480  82.5069809  73.3256674  84.4328690
  81.9465542  72.7513647  83.9110184  82.3441219  73.0611086  85.3382492
  59.1072130  68.0177450  23.2020044  59.5423412  68.8363552  23.4402752
  59.4188309  67.8297281  22.3166943  76.6006184  80.4044819  41.6965818
  76.9678211  79.5308685  41.8314791  76.8196917  80.6189728  40.7898092
  58.4813976  70.8779097  71.7575407  58.2475233  71.5451002  72.4028301
  58.8181305  70.1487207  72.2782421  63.7556124 101.3869953  68.8819790
  64.6747732 101.2494755  68.6529398  63.6662245 102.3373127  68.9536333
  63.7765408  94.8585987  47.6132536  64.4159126  95.4631805  47.9899836
  63.8043165  95.0358963  46.6730309  62.7774477  81.2988949  33.4324980
  61.9771624  81.6170788  33.0147243  63.2728100  82.0921421  33.6364889
  44.0699530  68.4319448  59.2721033  43.7215376  69.1182327  58.7030315
  43.3475256  67.8115177  59.3690586  74.2770147  68.1862688  76.6963768
  74.7313213  68.9357519  77.0812273  73.3838129  68.2479572  77.0349216
  18.9931681  16.2744045  54.2357206  18.0836203  16.5075778  54.4216776
  18.9946749  16.0364341  53.3085728  81.3046360  75.6087542  39.9211454
  80.7336330  75.4371214  40.6699657  81.2266159  74.8258114  39.3760347
  72.7234840  53.3192682  61.2795305  71.9330978  53.6694098  60.8685303
  72.7931452  53.7939835  62.1077967  25.2911544  67.1660662  28.1951308
  26.1878181  67.1899843  28.5292768  25.1361322  68.0498505  27.8617644
  60.2172470  85.8686447  43.6500311  59.9689007  86.7470169  43.9381695
  60.2084112  85.9186935  42.6941824  92.4495506  86.1837769  49.1294765
  93.2517338  85.8975410  49.5662928  91.7663574  85.6173134  49.4880867
  13.5022497  79.5394373  73.4502840  14.1707706  80.0044918  73.9533138
  13.9973783  78.9495516  72.8818512  68.5821104  76.1503124  58.0448723
  68.6781502  76.4835167  58.9370537  68.1779242  75.2893925  58.1529427
 103.0068970  42.5429440  34.6625829 102.6608753  43.0318594  33.9159465
 103.9536190  42.5293875  34.5220160  84.4465733  54.2606974  80.9935951
  84.9896812  54.8203230  80.4385471  84.9275684  53.4346914  81.0444736
  76.0072136 100.0036049  43.5487366  75.2064037 100.4219341  43.2326078
  76.3610983  99.5533848  42.7817345  67.1711683  65.4092026  92.0638657
  66.7668295  65.4102707  92.9314709  67.7026892  64.6132898  92.0483112
  12.1943381  40.9099006  48.9349318  11.4411452  41.5005683  48.9291334
  12.8648093  41.3717842  48.4315729  46.2842229  22.4614365   0.6713783
  46.6496232  21.6747696   0.2665627  46.8616441  23.1688148   0.3842652
   9.3310693  66.7388708  18.6925900  10.2607492  66.5903551  18.8654339
   9.2600206  67.6842768  18.5606873 111.9526196  32.4008941  31.3526225
 112.7091981  32.5537967  30.7865477 112.2482682  31.7343234  31.9727159
  41.2334538  67.9671001  62.6307297  41.0794258  67.1231842  62.2060966
  41.4164257  67.7459002  63.5438681  68.6106396  85.6154251  86.0320759
  68.6427355  85.4785728  85.0852585  68.4942722  84.7382259  86.3970661
 104.9846363 105.1371670  63.0974722 104.1957951 105.6661606  63.2163382
 104.6624851 104.2963314  62.7727461  95.6839943  96.5890694  38.8887787
  95.4071331  96.4572906  39.7955370  94.8666763  96.6287994  38.3921576
  98.0884076  29.6597480  53.8658237  98.3552361  30.3070068  54.5185852
  97.8469277  28.8882255  54.3783379 104.5770837  10.7943057  49.1069889
 104.9544478  11.2860393  48.3775902 104.8739243   9.8948860  48.9685249
  43.8452437   7.5326538  38.5470247  42.9468062   7.7849960  38.3340168
  43.9169791   6.6264629  38.2472062  70.9748364   9.6754646  61.4654541
  70.7678033   9.0806102  62.1862268  70.1243091  10.0044345  61.1745739
  68.4640360  98.6240101  87.2502041  67.6058245  98.5672474  86.8301105
  68.8903809  97.7939129  87.0371342  50.5852270  89.8320007  42.6087999
  50.2701759  90.6681538  42.9520559  51.5152836  89.8155785  42.8345251
  52.6778126  90.1798630  44.3086052  52.1185350  90.8338356  44.7278547
  53.0719233  89.6995449  45.0367498  96.8718530  17.3600006  52.3767138
  96.7848016  16.6019153  52.9546022  97.7885199  17.6221084  52.4619102
  83.6725140  81.4156151   6.1176294  83.7900543  82.3655605   6.1208367
  84.2377567  81.1019516   6.8235618  55.8733225 106.5546227  79.0908480
  56.3839436 106.1439800  79.7886086  56.2115479 107.4486828  79.0409374
   2.3859551  27.0483779  23.4893608   3.2576373  26.8811988  23.1309581
   2.0760634  26.1893176  23.7760687 101.1885453  12.4192237  57.5795984
 100.4700852  12.6115703  56.9770670 100.8858491  11.6607284  58.0788994
  61.9909525 106.7663002  24.8954678  61.9162035 107.4904442  24.2739654
  62.4066544 106.0636902  24.3957067  67.2668171  91.3132572  41.5763474
  66.8317652  92.0517063  42.0025444  66.8483114  91.2518120  40.7176781
  65.0534487  66.2166166  80.1394653  65.2742815  67.1086550  80.4072952
  64.2312527  66.3077450  79.6578836  62.0383787  87.2520638  40.7996368
  62.1967649  87.9921246  41.3856888  62.5874233  86.5493393  41.1474371
  94.0918637  16.1699104  64.7398376  94.3390418  16.7059898  63.9863443
  93.2297183  15.8212184  64.5132065 103.1170798  23.6487674  60.6273270
 103.8243914  24.0507793  61.1316490 102.4686862  24.3456649  60.5265951
  34.8303103  99.0785122  59.3216228  34.3159890  99.4416618  58.6006308
  34.1774035  98.7642002  59.9470472  99.3768024 102.9825211  69.4239473
  98.6045742 103.2991600  69.8925877  99.3453884 103.4318733  68.5793638
  80.1651573  62.8267145  22.5597191  79.7007847  62.4867821  23.3245993
  81.0863495  62.6329279  22.7331305  24.5310596  48.8783533  18.3252442
  25.3345874  48.4838468  17.9862129  23.8681033  48.1951982  18.2251370
 102.8355981  11.9111061  78.4634256 103.3751679  11.6580486  77.7143860
 102.3732806  11.1092376  78.7073660 104.1686344 102.7161789  48.7784624
 105.0199318 102.5622177  49.1881180 104.0011787 103.6483574  48.9171553
  77.9197455   9.2654704  63.1800270  78.3901120   9.3552303  62.3512125
  78.5799313   8.9499187  63.7971306  98.3038616 101.0577583  66.2290478
  98.2405376 101.7849922  65.6098938  98.1623936 100.2758312  65.6953764
  85.0101757  78.5378170  59.1644335  84.1155910  78.4864044  59.5010567
  85.1420021  77.7074575  58.7068796 113.0941773  15.9659004  79.3623304
 113.5171367  16.0435295  80.2174950 112.6036120  15.1454257  79.4113541
 109.0794564  12.7301788  57.4568367 109.9185420  12.2767829  57.5380230
 109.1863728  13.5267829  57.9766750 107.6671887  19.7608470  84.4986057
 108.3726407  19.3937206  83.9658928 106.9823361  19.9840545  83.8682175
   9.4437315  10.6547260  43.8117647  10.1538470  10.4049968  44.4030428
   9.7903540  10.4846191  42.9358959  17.6147273   4.1438770  73.6661816
  18.0553057   4.0739917  74.5130825  17.6216414   3.2521533  73.3183002
  45.2976561 100.0194645  64.6855116  45.8288145 100.3872585  65.3917933
  45.0393391 100.7771015  64.1606379  49.4148922  87.4826813  41.7834854
  49.9347973  88.1988239  42.1482849  49.8902845  87.2187042  40.9957314
  57.3000431 105.8514500  81.2361622  57.3396444 104.9654484  80.8760643
  57.7945471 105.7998753  82.0541000   4.4723704  14.7203349  89.9870777
   4.2837241  14.2494678  90.7988167   4.2222025  15.6256389  90.1716423
  51.8603754 105.6543064  30.1085925  51.0584927 105.2423859  29.7868180
  51.6050673 106.5561485  30.3028488 105.7049418  21.5080547  28.7587667
 106.2649442  22.2017955  29.1071177 105.6003095  20.8961772  29.4873905
  55.4778624  86.1483383  56.9691896  54.8646975  85.4579258  56.7170095
  55.3620672  86.2377262  57.9151440  83.5763645  87.9567242  38.8480687
  82.6293850  88.0815983  38.7858820  83.7274837  87.0849133  38.4829283
  27.0037939   9.4898605  50.3288794  26.5032866  10.1333808  50.8304787
  26.3473990   9.0331458  49.8027754  42.7330112  91.3826275  74.5269442
  42.4693584  92.3008156  74.5874500  42.0753574  90.9815407  73.9587402
  97.5612259  96.8770790  57.2883844  98.2493687  96.2801361  57.5822401
  97.1763897  96.4427662  56.5271282  14.7252276  11.5170764   9.6378195
  14.8460200  12.2468852   9.0303463  15.6143095  11.2496185   9.8706889
  88.5455132  88.0663586  48.0839539  87.9682446  87.3607445  47.7922297
  89.4233990  87.7747726  47.8379536  92.9370213  -0.2437211  57.0439672
  93.7077428   0.0735855  56.5732908  92.5524712   0.5425453  57.4314404
 110.0640059  17.3462009  54.1826487 110.6706763  17.9178333  53.7120914
 110.0023318  16.5618324  53.6375046 107.5481796  87.9685402  53.2853031
 107.7275181  87.9523945  54.2254162 108.0038929  88.7481689  52.9678965
  49.9615240  78.9312792  50.9493923  50.0490952  78.5993528  50.0558710
  50.1278543  78.1698751  51.5051222  83.5044671   0.5774307  86.6741848
  84.1496707   0.8409881  86.0180759  83.1084824  -0.2166558  86.3152218
  70.4228640  96.5647125  27.8244495  71.0493612  96.0432816  28.3262849
  70.9120464  96.8491364  27.0524168  65.6290245 104.3980312  61.8318224
  65.1033688 105.1797867  61.6621733  66.2486887 104.3632984  61.1030960
  92.7764750  10.8282279  55.4323292  93.0268813  11.5199947  56.0446882
  91.8998385  10.5656528  55.7130337 101.8576527  90.9357452  67.0694876
 101.5225410  90.5230427  67.8654861 102.0628548  91.8327999  67.3329496
 100.1620770  93.2802010  61.4796972  99.7752190  92.6017761  62.0331430
 100.1062489  92.9259777  60.5922079  25.5994990  16.4558410  47.1744490
  24.9411108  15.8690452  47.5465059  25.5024531  17.2693157  47.6695061
   0.5408289   3.5145759   2.1033734   0.3186657   4.2659568   2.6531842
   1.3444569   3.1652164   2.4885517  85.1177692  85.9234619  75.5043554
  85.6571388  85.4099846  74.9029779  84.2391777  85.8902836  75.1259232
  45.7124472  98.7711525  23.7904263  44.8251677  98.7252998  24.1466045
  46.1768389  99.3651962  24.3800735 112.5590182  16.8794155  33.7082767
 112.2969628  16.7241668  32.8008294 113.3215190  17.4542808  33.6423755
   1.6890861  81.2581921  83.1157207   1.0997631  80.5937481  82.7587128
   1.3721229  82.0825958  82.7467728  91.6761065   4.0198516  44.9631405
  91.2254811   3.6885261  45.7399225  91.1567260   4.7757434  44.6891069
  69.0248346  85.8196163   9.7013605  68.4187984  86.4704704  10.0554001
  69.4984627  85.4924011  10.4661036  59.5925713  99.7208595   3.5173690
  60.0801611 100.0329781   2.7550891  59.4335794  98.7943363   3.3370572
  98.1698418  89.1497517  75.2025557  99.0295982  88.7685490  75.0244236
  98.3549500  90.0592136  75.4367590   3.0976202  32.5277995  37.9850483
   3.6882021  31.8060207  38.2006407   2.5824406  32.2032833  37.2464585
  85.0387669  77.3144913  54.1193008  85.9633827  77.5602245  54.1498470
  85.0074100  76.5749454  53.5124063  89.2626859   3.2408904  17.2272992
  88.6878253   3.3143806  17.9891193  89.6315051   4.1176509  17.1200895
  71.2609911  86.8871975  47.4772882  72.0715046  87.0494366  47.9599667
  70.5676270  87.0077515  48.1260872  93.3030845   8.2197284  57.2188902
  93.7013532   7.7071475  57.9223680  94.0456773   8.6000728  56.7497206
  90.7364845  80.2148151  74.1433239  91.6809368  80.1669121  74.2914486
  90.6472301  80.3083706  73.1948948  32.4525785 105.5376244  17.0831752
  32.4481654 105.9300232  17.9562354  33.3790493 105.3951931  16.8892765
  73.7618971 100.5956936  50.0437355  73.7694502 100.7617188  49.1010714
  74.5336246 100.0505924  50.1971197  80.4826355 100.9162807  41.2312698
  81.0608006 100.4786301  41.8561125  79.6470928 100.9938240  41.6917896
  68.0229473  70.6215191  58.9510012  68.2227898  71.5534353  58.8625622
  68.8734674  70.2068377  59.0955210  58.5936404  11.8213939  81.4218521
  57.6655210  11.6356277  81.5643883  58.5998631  12.6225757  80.8981228
 111.0542632   7.6892375  72.2424030 111.2188531   6.7518711  72.3448515
 110.1963807   7.7370738  71.8205309  68.1088972  97.3747253  91.3064861
  67.8302097  97.8192997  92.1070576  68.3790159  96.5038490  91.5977573
  29.4414020  97.5604916  32.6359272  30.3535748  97.4527645  32.9053092
  29.2077398  98.4414577  32.9284000  61.3652945  95.6164169  65.4222679
  62.0349216  95.4097748  66.0742903  61.5390968  95.0120640  64.7006226
  45.8435300   7.8056127   6.5354359  46.7145875   7.4295504   6.4086830
  46.0071805   8.6590130   6.9368851  81.1668110 105.8295250  60.0833750
  81.8748093 106.4118099  60.3588915  80.4129791 106.4077187  59.9664354
  48.0449060  18.9575178   0.6299793  48.8100389  19.1432363   1.1743271
  48.3966401  18.4845240  -0.1242054  93.4233379 104.2754650  79.7139454
  93.2655525 103.3320427  79.7499561  92.6205063 104.6659279  80.0592327
  29.7052290  11.4192485  73.8750648  29.9425986  11.0431098  74.7226524
  29.2158511  10.7250976  73.4335852   6.8841937  10.8014202  64.2963552
   7.7178481  10.6898689  63.8393879   6.6219141   9.9127292  64.5365047
  57.9130102   1.6147899  60.8820200  57.6628579   2.4961852  60.6049013
  57.2749449   1.3860893  61.5578890  45.9674454  91.6264057  81.2248421
  45.0499105  91.8514347  81.3788605  45.9564114  91.1174107  80.4142666
  19.6976617  31.5077478   4.2888844  20.0036720  32.2674734   3.7934982
  19.1212705  31.8750936   4.9590027  66.7015266 103.8523388  49.0139151
  66.5080833 103.3950233  48.1955767  67.5987577 104.1677666  48.9057064
  85.7397652  85.0311089  67.9457998  85.1805210  85.6997585  67.5503540
  85.1650238  84.2739487  68.0581045 110.6466723  33.6839675  68.2007027
 109.8551274  33.3201789  68.5973740 110.5808545  34.6262550  68.3555889
  76.5989113  84.0383720  71.9929028  77.0323801  83.7835407  72.8073931
  76.5486717  84.9932384  72.0369053  63.2823849  96.0855579  36.5335250
  62.6389742  96.7768192  36.3772964  64.0679741  96.5502644  36.8218350
  64.7782755  86.5703678  10.9450555  65.3268480  85.8139610  11.1527598
  64.6530581  86.5223980   9.9972928 105.0000381  80.4305744  64.1801071
 104.1595650  80.5438709  63.7362480 105.1258945  79.4823790  64.2162657
  51.7822552  93.4499168  63.4733534  50.9705687  93.8588238  63.1730270
  52.2690868  93.2656479  62.6700687   3.7375882   4.9858570  60.8410645
   3.9975932   4.0671539  60.7730675   4.0780022   5.3907966  60.0433350
  96.5256310  99.2116165  54.6599340  97.0652008  99.0379906  53.8886070
  95.9503841  99.9287319  54.3933392  88.7507153  34.0282058  81.2709999
  88.2226706  34.3845271  80.5565453  88.9811755  34.7906684  81.8018246
  43.8756373   6.8887710  31.6431522  43.1510165   6.6469097  32.2199130
  43.5577395   7.6566600  31.1682701  49.3963861  97.9143810  43.0809879
  48.7021685  97.4162388  42.6495504  50.1090240  97.2850990  43.1922674
  81.8579006 102.5371552  73.9376259  81.0000610 102.2896671  74.2827225
  81.7968082 102.3650646  72.9980040  83.9219570  94.1366577  34.5163202
  83.1180954  94.5941544  34.7627497  84.4181633  94.0680599  35.3319836
  94.8551846  75.7819653  28.3177829  94.9261379  74.8318911  28.4102583
  94.3999767  75.9082413  27.4852729  27.6269343  11.6340827   9.2958313
  26.6854956  11.7632770   9.1807932  28.0298903  12.3028945   8.7421685
 104.8376751 103.7246323  82.1998024 104.1388035 103.7701607  81.5473270
 104.6251678 104.4157600  82.8270245  97.2706891  28.1467437  85.5079746
  96.3712645  28.1888294  85.1831722  97.1786500  28.0254840  86.4529896
  75.3465986  90.3962708  52.9233217  76.0676908  91.0256481  52.9348040
  75.1344156  90.2582645  53.8464499  87.5316907  13.1227111  77.0984221
  87.7278853  12.4065208  76.4944267  88.3502675  13.6149978  77.1601534
 103.6530019  28.4043598  23.8573623 103.1112433  28.9617633  24.4159555
 103.4417821  28.6812591  22.9657674  82.9374171  12.5342178  83.9019871
  82.2869635  12.0439720  84.4047832  82.4402858  12.9237651  83.1827164
  72.9945707  68.8100576  55.2355719  73.5900211  68.7213039  55.9797478
  73.1739616  69.6837616  54.8881674 103.2134438  95.6742001  16.1165023
 102.7091503  96.4843845  16.0421062 103.6279869  95.7283211  16.9775808
  86.7483331   1.0843944  52.5970602  86.3569070   0.3551101  53.0778646
  86.4521266   1.8656539  53.0640984  35.1313829  86.6437340  48.6777830
  35.1578975  86.3133812  47.7797890  35.9932375  87.0373821  48.8137150
  84.9293900  91.8826962  50.4037046  84.1434669  91.8955135  49.8574448
  85.4870892  91.2144852  50.0053501  15.7746794   3.3923816  68.8450861
  15.5679324   3.3043479  67.9146338  15.3005412   4.1761970  69.1226768
  73.9856339  66.6919184  63.7399817  73.2688761  67.0496321  64.2639446
  74.4657373  67.4613619  63.4338903  13.7099173  32.8339385  61.9508696
  14.0215876  32.4664020  61.1238241  14.2989161  32.4699592  62.6117945
  84.4499493  62.4831486  43.0212736  85.2608013  62.9908466  43.0529594
  84.7139931  61.5949011  43.2611275  90.4504299  99.1372108  64.6211147
  90.0431442  98.5065937  64.0272522  90.7797241  99.8287296  64.0470076
  58.9125967  86.9599819  66.5140247  59.7712374  87.2279453  66.8413782
  59.0499783  86.8060684  65.5793190 106.0237504   1.3729476  40.8602381
 105.9162951   2.2394943  41.2523937 105.8113767   0.7625198  41.5662861
  68.0581951  96.7430115  50.7960224  68.1331587  97.3747063  50.0807762
  68.6726856  96.0462189  50.5655622  92.6492023  75.3133535  37.5723004
  92.6262951  75.0844669  38.5014486  93.4517288  75.8252096  37.4714303
  73.5869741  90.5420589  48.3968592  74.3956518  90.6808758  47.9039097
  73.7929440  89.8264980  48.9983273 110.1582146  51.1280298  57.0747280
 110.9191895  51.5487814  56.6745853 110.3016472  51.2195587  58.0166864
  73.4940625  10.0191497  51.4319658  74.0888048   9.9666404  50.6837988
  74.0344406   9.7793960  52.1847868  56.2107897  64.6420622  51.7854118
  55.7561111  64.6006823  52.6267147  55.5847502  64.2825508  51.1568785
  24.9977687  49.6778566  11.5273106  24.5309785  49.9045069  12.3316490
  25.7976678  49.2466146  11.8280041 105.1671696  99.3030071  43.4848213
 104.8838425  99.6930408  44.3117619 105.2772999 100.0479603  42.8939438
  15.9882262   1.7272758  47.4176311  16.0252860   2.5299549  46.8974686
  15.3146460   1.8991661  48.0756426  59.7171402  93.6979675  69.5599413
  59.1372108  94.4594574  69.5531702  59.5890379  93.3070278  70.4242277
  79.3228102 105.4062653  49.7536469  80.2619171 105.5263138  49.6125507
  78.9085054 105.9801865  49.1092873  94.2371464 104.2095375  58.1016064
  94.8172760 103.6538982  57.5810814  93.5641193 103.6127853  58.4289598
 102.9722595  91.2185287  88.6949444 103.3581066  92.0547581  88.9558887
 103.2213402  90.6118679  89.3921947  99.9259520   1.6470718  60.2463245
  99.5901824   2.3449611  60.8088636  99.1836739   1.0536384  60.1319408
  74.4839573  86.7891407  38.8039136  74.2622662  85.8729458  38.9702272
  75.3559494  86.7569542  38.4104323  67.3714685  98.3045864  16.7196274
  67.9901361  97.8692627  17.3061228  67.6910114  99.2048931  16.6599000
   4.3433287   9.1326332  49.9115610   3.5944273   8.5404205  49.8432684
   4.3241408   9.6377563  49.0987158  93.4227562  74.7378302  71.2624979
  93.9117622  74.6188021  72.0767117  93.6020660  73.9448214  70.7573080
 106.3854981  11.3776874  53.1913280 107.0204450  11.7267417  53.8168144
 105.5331612  11.5994644  53.5662603  42.6316452  89.6069431  44.5114374
  43.3216667  88.9805603  44.7299385  43.0322313  90.1889706  43.8656759
 103.6720467   4.5867633  67.3427248 103.9180756   5.2512359  67.9862881
 103.8976098   4.9763679  66.4979982  92.4838544  27.8313064  89.6447086
  92.0402003  27.0527648  89.9812508  91.7736960  28.4178161  89.3841076
  87.2443581   3.1792831  78.5941648  87.9067613   3.7393093  78.9989090
  86.4220858   3.4449005  79.0059185  67.1096563  98.7661362  58.9871693
  66.3804388  98.5891151  58.3929205  67.4664021  97.9019928  59.1926336
  98.5503197  97.0859051  37.8469801  98.9487171  97.7916050  38.3563972
  97.6251984  97.1065426  38.0918527  85.9804916  72.0568275  76.3222361
  86.6179657  72.4832964  76.8949270  86.0925293  71.1217642  76.4935064
  20.0690558   2.9754733  71.2766552  19.4173815   3.5484981  70.8726788
  20.7697871   3.5665035  71.5521431  55.5228758  77.8893137  89.5853329
  55.5228186  78.0450058  90.5297852  54.6345758  77.5897312  89.3919182
  88.0185128  12.4736785  39.6971369  88.5294200  12.8552150  38.9832497
  88.6195899  12.4615573  40.4419756  49.0107250  85.8631229  71.1629295
  49.6417189  86.2692738  71.7571688  49.5495558  85.4006577  70.5210447
  66.8329144  81.7603970  63.8942671  66.6398239  80.8448601  64.0960979
  66.2484217  82.2597980  64.4645262  84.8336601  78.1401920  66.6815567
  85.5568886  77.5187111  66.7647982  84.1200733  77.6277685  66.3014793
 105.8814430  98.6239052  47.4913263 106.6118336  98.1009865  47.1606970
 106.2534904  99.1216850  48.2193518  24.4191507  73.6555273  18.1819641
  25.1453737  74.1402895  18.5741913  23.6338332  74.0926535  18.5112488
  47.6591253  74.6290779  29.2173457  47.7923107  74.8576164  28.2974172
  47.9991627  73.7376308  29.2943287  50.1135683  79.5101166  67.0612431
  50.8417559  78.8888550  67.0640659  50.1313877  79.8960543  66.1854792
  14.8193362   2.2520828  73.4952402  15.1395228   1.9451332  72.6470089
  14.4524863   3.1173992  73.3139038  73.3875776   9.5441913  47.4984360
  73.7948871   9.8343276  48.3146143  73.3571530  10.3303718  46.9532490
 103.5624599  89.9082279  51.0835695 103.9946079  89.3364620  51.7180395
 104.0921688  89.8292065  50.2902222  79.5600939  81.4984703  69.8533440
  79.1374302  82.2998238  69.5444441  80.0763893  81.7763424  70.6099558
  10.8356001   0.6171321  29.3373561   9.9108412   0.7457256  29.5483589
  11.3016036   1.1967658  29.9399376   9.7879889  13.4243488  34.4365072
  10.5354598  12.9794025  34.8359370  10.1732924  13.9750957  33.7550020
   5.8731749  17.7574348  40.0359249   5.3434756  18.0736255  40.7678270
   6.1268713  16.8700313  40.2896547  88.6063862  98.1453609  53.1244469
  88.2944679  97.2419643  53.1774426  87.9351807  98.6010933  52.6164913
 106.4670850  28.1122589  32.8024769 105.8425952  27.8752040  33.4880781
 107.3056460  28.1874179  33.2578850  89.1028881  92.9380989  87.0890808
  89.4116974  92.0858860  87.3966408  88.6240673  93.3023071  87.8335953
  39.0796664  13.4267043  40.2463102  38.3860209  13.1611633  39.6425128
  39.4487383  12.6027774  40.5643654 101.3943625  17.2142028  29.5754552
 101.8188382  16.3623046  29.6770787 102.1065856  17.8481960  29.6592474
  94.0203953  96.3985443  62.8148508  94.1759586  95.4545975  62.7832794
  93.5325336  96.5338516  63.6272049  65.8920288 101.1816311  71.4606667
  66.6145515 101.1777115  72.0884991  65.5353260 102.0684338  71.5115452
  63.1262112 103.8628006  37.4008656  62.4812794 103.5476685  38.0340958
  63.6804533 103.1024837  37.2249198  72.5277948  99.6798706  42.2791862
  71.9020939  98.9736748  42.1178722  73.0771112  99.3548584  42.9925299
  69.6625185  71.1142254  19.7550154  69.6480560  70.3632116  20.3483176
  70.3392267  70.8993101  19.1130579  78.8477993  95.5290604  63.4217501
  78.9125061  94.5905399  63.5984230  78.0216360  95.6272793  62.9484177
  83.2977772  69.1382217  31.1136317  83.7167454  68.7171793  30.3630137
  82.4099922  68.7805080  31.1241865  87.1392537  35.5293846  73.8568020
  86.6868783  36.3681602  73.7671375  87.3343898  35.2651882  72.9577160
  82.1179295  62.3415995  49.3633175  81.3051414  62.4461079  48.8686609
  82.7391148  62.9267025  48.9297152  89.3656541  24.1001605  68.1786871
  90.2197076  24.4958305  68.3526850  89.5216180  23.5074043  67.4434662
  31.8227961   5.8077430  24.5462728  31.8362524   6.6967677  24.9007940
  32.7352908   5.5210781  24.5838213  71.8786430  97.4559975  75.6091595
  70.9879684  97.4376965  75.2590227  72.0492697  98.3819675  75.7814980
  45.7047653  88.9927197  59.0291023  45.9054995  89.6219635  58.3362818
  45.3867912  88.2184792  58.5646963  54.5581007  88.0139446  82.6393318
  54.0969229  87.7276421  83.4277344  54.2803526  88.9215755  82.5156689
 102.6152229  90.5113697  47.0497608 101.7744160  90.9601402  47.1384764
 102.7130890  90.3700066  46.1081314  70.6024837  75.1074028  55.7495499
  70.0231409  74.7939444  56.4440584  71.4573669  74.7340584  55.9640646
   7.1625712  20.1606559  32.1502733   7.1982386  19.2352771  32.3924279
   6.2298014  20.3424835  32.0357728  80.5485439 104.8017597  30.8638859
  80.8968830 104.9600124  31.7412972  80.8274460 103.9108181  30.6525636
  40.7274055  90.5778122  38.6931252  41.4084005  89.9059391  38.7256956
  40.9870863  91.1471367  37.9687834  73.0341196  97.6468086  61.5831804
  73.4641314  98.2033920  62.2324467  72.6182413  98.2614517  60.9786177
 107.1594621   0.7056808  30.0127101 106.4402581   0.3542518  30.5375671
 107.6834250  -0.0609875  29.7805405   1.9257739   5.7287788  55.2306175
   1.1551526   5.2877330  54.8730469   1.6613438   6.6451835  55.3113317
  75.6199169 102.4925518  65.7082081  76.5049744 102.8501701  65.6374025
  75.4752350 102.0445251  64.8747969  77.3556709  72.8416443  53.4595585
  77.6960039  73.4484482  52.8021383  78.1057119  72.6548672  54.0241671
 102.6416922  10.4517745  61.8042278 102.0063783  10.0485706  62.3958683
 102.5609637   9.9538612  60.9907198  75.3884006  43.8073444   9.5597923
  75.7835818  42.9358196   9.5823276  75.2203179  43.9701843   8.6316425
  97.6701260  83.6745644  39.9308991  98.3201218  83.5414124  40.6208324
  97.0118141  84.2442799  40.3287554  71.3255692   5.5592822  33.8393283
  71.1653210   6.4093303  33.4294868  71.2389136   5.7257842  34.7779441
  88.3639909  45.3381156  92.7218628  89.2235852  45.0092506  92.4588394
  87.8465176  45.3266239  91.9166756  91.0719013  74.0877008  24.2907453
  91.1099911  74.5896006  23.4765720  91.9693089  73.7838697  24.4270277
  77.2401428 103.2043457  81.0491371  76.9053507 103.6586857  81.8222618
  76.5216732 103.2444096  80.4179287  60.3732923  82.9415304   6.8919098
  61.1896470  82.8195841   6.4072239  59.8850683  83.5866053   6.3803112
 106.6657257  74.7162056  83.4534454 107.5154114  75.1458836  83.5515976
 106.6418362  74.4390869  82.5375462  80.8407402  74.3303537  68.2220697
  81.1981297  75.1751280  67.9484653  81.4224625  74.0404558  68.9247704
  16.5780070  48.7585353  55.5302858  17.2818663  48.6239814  54.8957014
  17.0074179  48.6878681  56.3828373  71.1896611  -0.2844716  43.4878778
  70.9823585   0.4230594  42.8774166  72.0937754  -0.1151181  43.7526941
  90.0010968   2.2124099  64.4370174  89.6176673   1.3374042  64.3771887
  89.2499019   2.8051948  64.4137049  60.2806473 104.2693043  36.1968184
  61.2096739 104.2671108  35.9663129  60.2710819 104.3252659  37.1523333
   4.8242762   8.5414981  65.5646706   5.7284644   8.3361339  65.8023977
   4.6149924   9.3250179  66.0731363  30.8177283  14.0376472  80.2747440
  30.1131060  13.7555599  79.6915102  31.6023924  13.6168670  79.9233675
  92.9594994  98.1284046  81.9793606  92.3378372  97.6326942  82.5123215
  93.5172749  97.4612713  81.5793037  93.0355167  81.6850948  68.2651567
  92.3644447  81.0031891  68.2952690  92.8739071  82.1439362  67.4407911
 110.5200005  18.9944553  32.4458933 110.7221890  18.5194969  33.2519770
 109.8881913  18.4371089  31.9915652  46.7832282  17.3508167  24.6086049
  47.0396807  16.4443874  24.4387269  45.9107783  17.2841644  24.9966931
 106.9506074  15.4332733  88.3565235 106.3634873  15.0736045  89.0214729
 107.3462916  14.6647357  87.9454136  20.4128840  24.5592498   8.1388360
  19.4713690  24.4720363   7.9899120  20.7446673  24.9697685   7.3403186
   6.8771030  89.1854668  67.0517683   7.5770237  88.7489891  66.5661335
   6.8066360  88.6899185  67.8676748  99.8120023   4.3988037  90.3675270
  99.0845633   5.0208663  90.3569508 100.5031443   4.8299312  89.8648548
 101.3584185  27.8069591  58.4235811 101.5828467  28.6751079  58.0886650
 100.6326867  27.5172233  57.8707647   4.8358538  20.0453281  70.3011370
   5.0962450  20.1066207  71.2201929   5.6624892  20.0163745  69.8194075
  36.0284331   1.2071132  53.7217760  36.3395312   0.7954406  54.5279884
  35.2061655   1.6294002  53.9703369  15.5466750   8.8399505  57.3876333
  15.5981162   9.6348667  57.9183817  14.6277907   8.5767841  57.4388790
 100.3022624  17.3192500  48.4203625 100.2144194  17.6099777  49.3281031
 100.0006438  18.0639552  47.9000998  16.5818359  74.9407721  43.0125666
  15.7010128  75.3047991  43.1011915  17.1311618  75.5085754  43.5530043
  99.2515564  91.2858677  51.0225868 100.0771809  91.2186432  51.5022421
  98.5806656  91.0641575  51.6683340  14.0667822   8.0493259  47.6002789
  13.7285902   7.9457378  46.7108250  13.3908369   8.5503292  48.0567026
  14.0271571  28.9501857  53.6685181  13.7687972  29.4880866  52.9200888
  14.6214964  28.2966232  53.2999420  29.0279200  29.8242282  27.6932120
  29.8063090  29.5423793  28.1737399  29.0012553  30.7731628  27.8158808
  75.5951309  76.1389685  44.4324303  74.7667837  76.1947155  44.9088430
  76.2380648  76.5312481  45.0231791  82.0184135 104.7990131  65.0963831
  81.7539215 104.8792076  64.1799545  82.6169968 105.5324173  65.2379751
 111.6263247  53.8544559  69.4508171 110.7298280  54.0112590  69.1542768
 111.5408660  53.6742114  70.3869963 108.6818219   7.5537013  46.0951138
 109.3913699   8.1935214  46.0367918 108.9500810   6.9619655  46.7980480
   5.1988509   1.4018249  84.5000648   5.0655844   2.3181915  84.7424221
   6.0792830   1.1964988  84.8145771  34.1971495  20.0125884  38.0579543
  34.2636492  20.7396316  37.4389076  33.7306502  20.3794002  38.8089919
  89.1904784  19.1044044  17.7069020  88.5163689  18.4563732  17.9114997
  89.3966866  18.9524936  16.7846048   6.7706683  38.4070968  46.2071466
   7.2731879  38.6579322  45.4320335   7.2354701  38.8167095  46.9368124
  77.1684599  67.5292492  53.8850260  76.6293192  67.0840836  54.5387745
  77.0646811  68.4600735  54.0825891  93.2224370  10.9690761  46.9395876
  93.9724685  10.8504962  47.5223637  92.5856257  11.4540672  47.4644566
  34.2644095  73.2706070  48.3259344  34.5492458  73.5633039  49.1916323
  35.0119066  73.4483480  47.7550650  47.0000648 103.8908577  59.3433571
  46.6736507 103.0815506  59.7366810  46.4992619 103.9821625  58.5327435
  82.6130772  84.2205238  63.6327696  83.1257057  84.6690750  64.3052626
  83.2103252  83.5638523  63.2745743   0.4024746  86.6035271  57.1946478
  -0.1688240  85.8726501  57.4305582   0.1634456  86.8125916  56.2916565
  82.6391315  86.5790272  34.7189832  82.4143505  87.5083160  34.7651553
  83.4054279  86.5461254  34.1463232  98.3650018  33.5815524  67.4755096
  98.2617284  32.9285049  66.7833424  98.0371190  34.3937301  67.0893764
  68.3272266  83.2939148  44.8226309  69.1624832  83.7428284  44.6920300
  67.8568220  83.8413715  45.4513168  93.7413979  90.2635479  22.7159238
  94.6774769  90.4416180  22.8068686  93.5441303  90.4786301  21.8042970
   3.9404919   4.8567676  52.7071953   4.3929007   4.9056911  53.5493183
   4.2674973   5.6101322  52.2155190  16.0973884 105.3146744  60.0272942
  16.4965679 105.0001240  60.8384275  15.4500152 104.6459198  59.8039007
  18.0908301   0.0931739  30.3662586  17.8613474   1.0072135  30.1986384
  17.4884512  -0.4094411  29.8178577  28.2620814  38.2827854  56.5472031
  28.2388594  38.0737876  57.4810219  29.1907408  38.4101867  56.3533020
  71.2875938  93.2142925  49.3271923  71.1145449  93.7081242  48.5256863
  72.2052097  92.9520321  49.2535257  67.2047615  89.8070049  44.3360424
  67.1435547  90.0043011  43.4013939  68.1428909  89.8300266  44.5247555
  61.2506819 100.2639103  63.0666685  61.7714310  99.4883919  63.2755518
  60.7805681 100.4620075  63.8765955 102.6468945  32.5426769  17.9551256
 102.5878573  31.6286277  17.6771867 102.5926066  33.0443382  17.1417224
  76.2152818  46.8964464   8.8271439  76.1014417  45.9605009   8.6619770
  75.3483728  47.2733862   8.6767494  83.7050152  94.5790863  54.8682880
  84.1844368  93.9888287  54.2869282  83.1416416  95.0858974  54.2834902
 107.0041228  25.3393077  12.3135936 106.5935183  26.1008071  12.7231717
 107.5750352  24.9806404  12.9930425  58.1464529  96.9208908  54.9582291
  57.4660015  96.8875790  55.6306171  57.8362226  97.5786877  54.3358994
  66.4612246  73.7640190  59.6264744  66.2131262  74.2064810  58.8147449
  65.6360340  73.4321213  59.9802113  71.1853266 105.7542610  59.4425344
  70.3975058 106.2228584  59.7181988  70.8892584 105.1851749  58.7320995
  77.6758195  33.0252742  46.0794687  78.6253835  32.9499626  46.1737347
  77.3348809  32.1988391  46.4215088  72.0784616 103.6185837  57.4918318
  72.8853559 103.9209843  57.0750475  71.7661858 102.9129887  56.9253922
 107.1926165  22.3945331  51.7177534 106.9332267  22.6526451  52.6022434
 106.5593291  22.8286361  51.1461496  80.9897614  94.7247791  22.4017954
  80.2726555  94.2382622  22.8083539  81.4437199  94.0767288  21.8631077
 101.6210175  10.1416206  46.5564823 102.2493411   9.4898509  46.8673372
 102.0625068  10.9809303  46.6863823  42.1609545  93.2979107  57.0162439
  41.8069696  93.6822510  56.2142420  41.4260340  93.3042049  57.6294994
  17.8056052  -0.2420521  73.6076069  18.1533625  -0.0268651  72.7421618
  18.1733801   0.4258155  74.1863441  81.2436008  88.2307243  49.8210239
  80.5760479  88.7960529  50.2096367  80.9986591  88.1707096  48.8976383
 109.0640450  18.8205528  71.1883402 109.4592477  17.9493999  71.2221575
 108.3619929  18.7904548  71.8383026  90.8585072  19.3701171  56.5646648
  91.7053128  19.8118877  56.5015030  90.3821755  19.6525859  55.7839298
  43.6943483 104.4496632  52.1923923  42.9615355 103.9852810  51.7879581
  43.9273930 105.1278210  51.5583372  92.6423073 100.1178646  75.4143143
  92.8371906  99.1912651  75.5545473  91.7621708 100.1232433  75.0380754
  66.4905122  68.5163481   7.1142399  65.6303838  68.6056787   6.7038262
  66.3026861  68.1980688   7.9972183  98.5444737  24.9493408  75.8241653
  98.0899478  25.0650882  76.6585732  99.4737101  24.9664211  76.0532188
 105.9341145  27.3046493  64.4299364 105.4594661  26.7041683  63.8551664
 105.3089238  27.5173950  65.1228285  28.2990839  21.3326167  38.1517172
  27.7102282  21.7053508  38.8078856  28.7699225  22.0865535  37.7965879
  73.5794258  96.2837315  77.6205921  73.1300926  96.8629074  78.2361317
  73.2011890  96.5001965  76.7683554  84.6059895 103.3817863  36.9898629
  85.5449200 103.2726860  37.1406674  84.1959667 102.7135181  37.5389743
  79.5037127  79.8015356  46.9981384  79.6963978  80.7349014  47.0872259
  78.5540533  79.7420216  47.1022320  85.0261784  97.8065300  19.3297482
  84.0945339  97.9409218  19.1559577  85.3228474  98.6374092  19.7010553
  76.1469507 106.2013626  52.7571106  76.6705561 106.8996716  53.1500912
  76.7917061 105.5809402  52.4171066  16.5921595  41.7424201  63.3617830
  17.0882609  42.2329139  64.0171766  16.0594370  41.1322784  63.8718462
  11.6417696   7.0609378  26.6365075  10.8576300   7.1641826  27.1756721
  11.3348582   7.1933460  25.7395673  45.6354904  90.3253555  47.0598125
  45.9701538  90.1768970  47.9442263  45.7570553  89.4871426  46.6138840
  16.8764975   8.0212497  19.3977988  16.0968878   8.5715579  19.4726038
  16.5603163   7.1337413  19.5669115 107.1976043  44.8924255  48.7457132
 107.7071143  45.7022952  48.7730932 106.8377019  44.8657417  47.8591490
  58.2077217 100.5691814  48.8424301  58.4732866 100.7723522  49.7393274
  57.8591537 101.3936234  48.5032606   5.1269057   5.0197601  37.5958323
   4.3790772   5.4611492  37.9985309   5.5616190   4.5737457  38.3226895
  36.7858126  31.9670867  52.5445890  36.8043616  32.2100734  53.4702492
  36.7903330  31.0099029  52.5480890  29.6294405  11.9692897  43.3016109
  28.8962748  12.4922847  43.6259174  29.3619444  11.7010211  42.4225712
  23.3050921  21.2100410  46.8384457  22.9782965  21.7859840  46.1472702
  23.9755156  21.7276000  47.2844315  66.2846470  77.8270864  67.5640059
  66.9619417  77.2442961  67.2207022  66.4920855  78.6827612  67.1884680
   8.3971884  28.1123161  80.8805275   8.2529738  28.3961009  81.7832470
   7.7279761  28.5733413  80.3747177  96.5307808  92.8974819  37.3098898
  97.0162010  92.1163845  37.0443892  97.2078800  93.5441589  37.5088191
  43.5547686  81.6656017  58.2508850  43.2073450  80.9201622  57.7611399
  42.8863335  82.3446465  58.1596136 112.3155309   0.4718875  25.5471277
 112.3594237   0.1494502  26.4473176 113.2001162   0.3453731  25.2040029
  39.6004870   0.4592037  56.3009167  39.8930647  -0.3472233  56.7255545
  39.8959734   1.1580085  56.8845177   9.7647574   9.7092628  76.0055113
   9.2597392  10.5148124  75.8946514   9.6073534   9.4509601  76.9136620
  38.6886167  51.8370168  84.6589315  38.2400941  51.1709325  84.1379738
  39.4818305  51.4022272  84.9719894 108.5296726  80.7093525  85.7130146
 107.9365540  81.0242176  86.3951397 108.3308983  79.7762918  85.6347752
 109.1041756  17.5453662  50.8717012 108.6631347  18.3233642  50.5304575
 110.0177623  17.6524543  50.6069040   5.5739691  43.0747318  70.8817911
   5.6390002  43.5389232  70.0472069   4.6332838  42.9725170  71.0263443
  14.7395613  12.7962779  22.7461076  13.8236048  12.9616928  22.9694605
  15.1643565  13.6500072  22.8294349  14.3421652  17.8992462  87.0588589
  15.2795412  17.7806568  87.2121525  14.2661192  18.0056667  86.1106396
  63.2651615  75.2192879  55.2417660  63.1460905  74.8213291  54.3793964
  62.3769855  75.4163742  55.5393028  13.9793017   8.0677509  80.5831051
  13.9506915   8.3383178  81.5008259  14.7987177   8.4342861  80.2507687
  24.7716429   7.6006793  36.3821626  24.5554354   6.7136669  36.6697383
  24.0354636   7.8587531  35.8274865  91.0307885  15.5574703  53.2853460
  90.6091834  15.8089733  54.1070700  91.0420180  16.3614749  52.7660322
  95.2549362  86.8880081  45.1443958  94.9741745  86.2237549  45.7738161
  95.1758099  86.4591885  44.2922974  95.6033802 100.7428169  59.3654346
  94.7498703 100.3497791  59.1830063  95.9415531 100.9910965  58.5050678
 112.8042174  10.4796218  54.0614557 112.0234586  10.8695125  54.4546890
 112.8175689  10.8203983  53.1670713  30.3356745  15.9706497  65.3552198
  31.1639407  15.5798435  65.6335878  30.0653937  15.4471111  64.6008444
  41.9132566 106.3917255  55.3118515  41.0663557 106.7100143  55.6243944
  42.2278929 107.0819283  54.7280169 103.8724995  16.3898181  34.2395592
 104.3982745  15.6387042  33.9645696 103.2948209  16.5628242  33.4961963
  66.9763041 103.7049198  17.5595570  67.1474934 102.8198147  17.8812945
  67.5745583 104.2610550  18.0585992  83.7256336  58.8265038  72.0334768
  83.3740425  58.0122709  71.6734219  84.4782925  58.5515404  72.5570488
  65.4447699  81.8893814  59.1257143  64.8675919  82.3382092  58.5079384
  64.9040794  81.7544842  59.9039745  27.9016783  18.3390045  24.1931176
  28.6118796  18.6848735  23.6525536  27.2641852  19.0517616  24.2357278
  20.0506213   9.6019267  55.8082724  20.7152750   9.0801238  56.2579298
  19.4105532   9.8119926  56.4882898  17.6051142  22.3404598  65.3636599
  17.3374941  23.0477905  64.7768927  17.3055174  21.5421581  64.9286890
  16.0031127 105.2891547  41.1560011  15.5169343 106.0061391  41.5631819
  16.4380025 105.6913096  40.4040861  25.8315825  13.9089346  32.7656698
  25.9985018  14.8332822  32.5814152  26.6176009  13.4576213  32.4579000
  36.5794611   2.5496674  35.7069659  37.3791599   2.0245461  35.7379961
  36.6560721   3.0550998  34.8977065  23.1182885  13.1500590  32.9886055
  23.8832974  13.3729994  32.4582410  23.4237075  13.2245064  33.8927126
  96.0646890   3.3459845  44.9568415  95.3671287   3.4933537  44.3181515
  95.7379340   3.7429076  45.7642555  97.9907987 102.7773971  10.6291687
  98.6911151 102.6883531  11.2755895  97.9889915 103.7078888  10.4046381
  16.7961991  21.7929268  36.6001558  16.1172843  21.1447072  36.7875504
  16.4619923  22.2786427  35.8460879  66.1547527  71.9894100  29.2024302
  66.6591541  71.1832524  29.0932488  66.7868165  72.6233793  29.5412636
  65.2135012  99.4560427  18.2705605  65.5605272  98.8895846  18.9597130
  65.0123785  98.8599110  17.5491679  22.3141146  25.3644776   2.3680803
  23.0125380  25.7269907   2.9130745  22.5796318  24.4585776   2.2097223
  -0.1703168 101.1202396  22.4918389   0.4240393 100.9432924  23.2209921
  -0.1298643 100.3303159  21.9527507   7.6246947  26.5232658  58.0955410
   8.5457861  26.6340423  58.3312321   7.1520144  26.6267705  58.9214325
 106.1113761 100.7307596  68.5660887 105.4001257 101.1385429  68.0720568
 106.7165849 101.4487911  68.7515211  37.4715495  37.6537585  65.0806713
  36.9095850  38.2278419  65.6011057  37.3051357  36.7772079  65.4273701
  44.7295952   6.7402291   8.7817818  44.9529648   6.9839483   7.8834838
  45.4645824   7.0582908   9.3060535  53.5121965   9.5039511  18.7170780
  53.6729813   8.7021041  18.2196629  53.3765936  10.1766443  18.0497491
  94.2302117 106.9610351  41.0110140  94.9650548 106.5702034  41.4837551
  94.2629669 106.5591442  40.1428843 112.4713770  16.1547756  41.9646692
 113.2161420  15.5544245  41.9309711 112.8171487  16.9419837  42.3853588
  25.1583552  22.9791164  68.0378008  25.0801587  22.2783136  67.3905039
  24.2545795  23.2263184  68.2335281  95.6870244  85.6947685  60.9782934
  95.6162069  85.2705885  61.8334484  96.6060088  85.9550453  60.9154081
  76.7746721  95.0045193  30.2260375  76.7311712  94.0566600  30.3521395
  77.7096762  95.1926756  30.1448178  17.7034855  25.0077105   7.8342044
  17.2913194  25.8373928   8.0749893  17.5833142  24.4488668   8.6019850
  30.2500439   8.7530231  53.9366865  30.2079129   9.5573390  54.4539213
  30.5146599   9.0432048  53.0637550  15.1499164  52.9970551  54.1159821
  15.1183128  52.5440788  53.2733393  15.2450919  52.2963810  54.7611380
  19.1401875  29.8700428  45.3190470  19.6323252  30.5841064  45.7241964
  18.5444915  29.5699978  46.0055971  79.6961168  89.7611189   9.9507803
  79.5052484  88.8653172  10.2288795  79.3009175  89.8314858   9.0818167
   9.7800475  10.5743694  49.2784834   9.6412235  10.8826864  50.1739693
   9.5507467  11.3237739  48.7288952  10.5429256  -0.0094668  55.1672935
  10.3868163   0.6925612  54.5356131  11.1061108  -0.6286558  54.7029018
 100.3584645 104.9345957  27.2594166 100.4810760 105.8766770  27.3763824
  99.4105694 104.8090940  27.3038316 108.8393138  43.5010910  57.4345255
 109.7707905  43.3170271  57.3132610 108.8193516  44.2725706  58.0007887
   8.3019656  28.7898827  24.1086960   8.9712662  29.3046403  23.6578155
   7.5289065  29.3543148  24.1140151 112.5937579 103.2865200  26.4076662
 111.6703794 103.4713799  26.2361097 112.5891087 102.7724106  27.2150707
  70.7067371 101.4233560  78.5790634  69.8354385 101.0611678  78.7399673
  71.1069072 101.4791734  79.4468069   9.4683218   3.0151680  41.7948008
   9.1001576   2.1719103  41.5309763   9.1158980   3.1665301  42.6717949
 100.2618120  81.2811709  26.6399097 100.0053475  82.0783496  26.1762691
  99.8425267  80.5737615  26.1500072  94.7916637  -0.0660393  14.5130765
  95.2966486   0.6403966  14.1103733  94.8320709   0.1157682  15.4519832
  21.9264841  47.0452166  27.6503539  21.4181685  47.7985144  27.3497081
  22.7875185  47.4061537  27.8614879  23.2315707   4.5599666  32.2642779
  22.4765396   5.0968951  32.0237231  22.8874254   3.6677489  32.3060322
 111.5644866   1.8232833  40.1972818 111.6057248   0.8678829  40.2390146
 110.7721965   2.0070019  39.6925497 111.7259572  35.5500484  55.9005451
 112.2982883  34.8976493  55.4967546 111.5566342  36.1841583  55.2037907
  54.1951752  30.1674104  21.5284848  54.1367102  29.9721169  20.5932450
  54.6210384  29.3985271  21.9075537  81.1496309 103.4627319  51.6859722
  81.1286268 104.3047032  52.1408081  81.4364288 103.6771337  50.7982731
 108.4895401  13.1708407  36.9852638 107.8625058  13.8401353  36.7112112
 109.1715749  13.6570024  37.4486279   0.5242418  86.7192579  69.6038532
   0.9845781  87.5481368  69.4723940  -0.0197960  86.8674839  70.3773403
  72.3086998  49.6106615  90.2166632  71.5358087  49.0533441  90.3076013
  72.1922776  50.2915924  90.8792422  52.7691555   2.9456943  33.2254505
  52.9404783   3.6160100  33.8869309  53.0004406   2.1216395  33.6540198
  39.5173836  13.6754656  49.4827127  39.6120167  14.3287671  48.7895536
  39.7280216  12.8437459  49.0583277  33.1959915   2.0835081  36.0962462
  33.2305360   1.8671119  37.0280242  33.5938597   1.3298570  35.6604218
  69.8110295  43.6219550   6.2075913  69.7056080  44.5720388   6.1580002
  69.6862627  43.3198483   5.3079235  29.2041421   1.8781266  92.1230602
  29.4244123   2.4680786  92.8439331  28.8789415   1.0866740  92.5520992
  29.5240688  43.5974789  52.7427435  28.7371421  43.3717060  53.2387304
  29.6223831  44.5415735  52.8662491  25.0820327  33.8401484  55.4247427
  24.1353464  33.7851954  55.5551052  25.3460956  34.6202493  55.9125328
 110.4602046  51.8929577  31.3018823 110.9924678  51.3372755  31.8712187
 109.6190993  51.4398146  31.2432623  43.6025858  39.8837090  38.9516664
  44.5005083  39.6019959  39.1266060  43.5175085  40.7155943  39.4174504
   2.2005247  94.0922666  26.2591457   2.6679134  94.5846558  26.9339299
   2.5632810  93.2081247  26.3132858  30.6728816   8.1307441  14.0647769
  30.6152892   8.2518566  15.0125349  29.8329329   7.7414155  13.8215888
   9.9410856  13.9891458  26.3651013  10.0558281  14.3127251  25.4715896
  10.7984519  13.6370909  26.6042900 108.4116600   4.9562666  90.0309181
 109.1240059   4.7320819  89.4321442 107.8537838   5.5496001  89.5279694
  56.5721986  65.0276976  83.1695116  56.9013199  65.8027857  83.6246479
  56.9027445  65.1164668  82.2755933   2.9846906 104.8810608  52.8931236
   3.2643747 104.9377141  51.9794512   3.4860181 105.5632443  53.3398104
 105.3320906  93.8136542  38.7304044 104.9248741  93.6801136  37.8744984
 105.5959747  92.9368997  39.0095067  93.3427451 102.0266054  42.3982668
  92.6378462 101.4668555  42.7238894  93.4163461 101.8036730  41.4703035
  38.5840178  11.3228416  30.1703143  38.1024003  12.0608854  29.7967291
  39.4358277  11.3473976  29.7343683  23.1300688   9.0667689  31.0461617
  22.9690075   9.7360224  31.7112851  23.7410140   8.4582502  31.4617109
  91.3807211 102.6686630  51.7634535  90.4881356 102.9470865  51.5585089
  91.2817500 101.7806316  52.1067286  23.0748057  24.6710753  49.4639492
  23.4919190  24.3696213  48.6568689  23.6452436  25.3711438  49.7813416
   6.3310206  15.1713622   5.2932000   6.9383842  14.5194721   4.9433711
   6.7963737  15.5587876   6.0345364  27.5585246  35.1597691  40.2595615
  28.0010676  35.3284001  41.0913992  28.2217860  34.7322631  39.7177577
  67.5626516   9.7179651  25.5569601  68.2288933  10.3579521  25.3064132
  67.5364828   9.1007435  24.8258066  56.1081944 105.9342463  84.5423603
  57.0300124 106.0943659  84.3402576  55.9408209 105.0510103  84.2135525
  38.4057140   0.6421208   6.6615522  37.7682734   1.2784734   6.9855237
  39.0993524   1.1747605   6.2724614  26.1573434  38.8796043  77.4711227
  27.0556927  39.2097068  77.4862528  25.7033706  39.3898010  78.1418228
   5.6626880  14.9501836  62.8860855   5.4209554  14.5274150  62.0620298
   5.3911370  14.3295729  63.5623503  98.0733178 103.0628312  43.6503792
  97.5225852 102.3824603  43.2630539  97.4532578 103.7047911  43.9962769
   6.6720819  20.3157640  42.6435184   6.6848117  21.1945152  43.0228138
   5.8313555  20.2632642  42.1889257  84.5375387  95.9937013  41.6591120
  85.2007071  96.4859427  41.1752367  83.7114481  96.2217701  41.2327433
  17.1692133  34.8593926  48.6064053  17.5770974  35.7114363  48.7609482
  17.0806277  34.4745755  49.4783592  75.8416388  77.9157305  28.0301237
  75.0630342  77.6959348  27.5185609  76.1936097  78.6984778  27.6062679
  66.3399843  99.2855973  54.3516254  65.7858286 100.0033719  54.0451241
  66.3252924  98.6494870  53.6365175  22.6873565   4.2440134  69.2177486
  22.4363756   4.3816587  70.1311493  23.6063004   4.5091495  69.1793013
  10.7321858  38.6717224  47.5745344  10.3299844  37.8405213  47.8266621
  11.3395631  38.8698554  48.2873249  28.2173848  14.2114413  59.0379858
  27.8857040  15.0724936  58.7834120  28.2019734  13.7000620  58.2289839
  14.7877944  28.0379939  61.9928694  15.6790102  28.0791831  62.3396683
  14.8261201  27.3650599  61.3132238  87.1658752  96.0578430  48.5344362
  86.4479778  96.2558532  49.1358042  87.1483812  95.1048887  48.4460974
 109.2687778  32.1537185  36.1804485 108.4154619  32.4146342  35.8340311
 109.9013986  32.6298475  35.6425595  29.1734481  16.6237998  45.2647018
  29.9517441  16.3528323  44.7778082  28.8943863  17.4341750  44.8385000
   8.1691407  82.9944325  53.9190388   8.1298780  83.5069323  54.7265244
   7.3984765  83.2700611  53.4227085  42.4672747   5.9336472  27.3551178
  41.6621017   5.4162204  27.3692656  43.1209230   5.3709304  27.7702427
   1.2419502  34.8641038  36.3897610   1.2827790  33.9106774  36.4642096
   1.6142072  35.1846552  37.2112846   7.8739518  12.6538682  45.2248478
   7.6820970  13.5167801  44.8576880   8.0296099  12.0979321  44.4613409
  49.0269375  16.5332615  50.9446478  48.4953403  16.1811960  50.2307224
  49.7253132  17.0192373  50.5060959  34.5643759   2.9743558  49.4324398
  35.1677179   2.2313441  49.4443703  34.4780064   3.2275361  50.3515005
  96.9459984  91.7574144  44.4638824  97.6733158  91.5385342  45.0464058
  96.4587400  90.9387565  44.3710852 110.6792648   7.2178739  25.3895855
 110.4696326   6.3793302  25.8008409 110.1260059   7.8527582  25.8446217
  80.6932972  93.2694197  87.7704239  79.8261300  93.6264754  87.5786781
  80.8320663  92.6029897  87.0974827  18.2115567  43.7984371  68.4717464
  17.2557557  43.7470818  68.4654188  18.4993863  42.9459476  68.1451750
  20.0886010  85.1690364  31.3431764  19.2333411  84.7949529  31.5548730
  19.9544667  85.6154514  30.5071425   7.9058122  83.3305860  78.3551311
   8.0436181  82.6770688  79.0408134   7.3547982  82.8879333  77.7096272
  52.3979092   8.0401891  53.3403873  51.9326830   8.3071434  52.5475883
  52.9943609   8.7659860  53.5239553  82.9503963  86.1271430   9.5457995
  82.4153075  86.0758377  10.3378093  82.3440341  86.4203501   8.8656622
  11.7193650  87.1667386   6.0702562  12.6755714  87.1407903   6.0351878
  11.4419126  86.9936526   5.1706481  18.3458269   7.7999246  75.7894945
  19.3002856   7.7278119  75.7958412  18.0459750   7.0564169  76.3124847
  35.3689361  12.7468896  40.9417772  35.7095122  12.0725596  41.5295887
  34.6718407  12.3090327  40.4533386  40.6812477   9.1014254  48.5681009
  41.1432123   9.2835259  49.3864250  40.6177473   9.9523830  48.1344271
  26.7794228   2.8333759  38.2194877  27.7355814   2.8777993  38.2237554
  26.5500784   2.5246885  39.0960407  14.4145143  29.8283863   6.9369084
  13.6655641  29.3479586   7.2897458  14.5836926  30.5153584   7.5816405
   8.8817221  18.7605405  40.9538317   8.9086336  17.8724289  41.3098717
   8.1164718  19.1609395  41.3665104   5.3207231  14.5134497  55.6206942
   5.2522331  15.4587805  55.7544422   4.5997027  14.3026233  55.0274706
  42.1753025   4.4472018  56.4461517  41.5549946   5.0706571  56.8239880
  42.9509783   4.9716684  56.2474251  80.4362057  34.0849018  72.9479456
  79.7482417  34.7240782  73.1333923  80.5697249  34.1443944  72.0019722
  37.0204139   9.2332047  31.9199395  37.2439098  10.1266074  31.6589522
  36.9750142   9.2670804  32.8754616 108.7710712  81.6553474   9.7346812
 109.1084383  80.7622266   9.8036087 109.1555617  81.9949127   8.9265376
  94.0647349 105.6247657  48.5435724  93.3862004 105.5569198  47.8718424
  93.9524803 104.8384129  49.0776873   7.8370570  97.4818516  51.4623785
   7.8689145  97.2464723  52.3896408   8.7498092  97.6461542  51.2254810
  31.5719795  15.4980218  26.2551975  31.1926103  14.9943554  26.9753599
  30.8415151  16.0126674  25.9119892  12.6486111  18.6560416  57.1507120
  12.5258791  17.7075922  57.1908760  11.8711233  18.9790857  56.6953135
  25.5361366  36.9203877  66.6863871  25.3874493  37.8110766  66.3689089
  26.2728143  37.0018721  67.2921085  48.4269667  38.0125380  13.9284921
  48.6029863  37.7005100  13.0408621  47.6932001  38.6189532  13.8280952
  13.2934463  17.7038753  18.6625993  13.3853173  17.0298934  19.3360531
  13.4383750  18.5280836  19.1272581   6.9930983   9.7676784  47.2335911
   6.3849026  10.4778564  47.0287085   7.7982056  10.2113318  47.5004339
  45.5662918  37.8047371  74.0492344  44.6130466  37.8672957  73.9888573
  45.7226849  37.0000267  74.5434141  31.0772443  29.7855926  21.8065214
  30.2094722  30.1638150  21.6645575  31.3999939  30.2169180  22.5977373
  44.1675138   6.9307613  25.4589653  43.6132240   7.6798338  25.2401400
  43.7156057   6.5027344  26.1861515  57.0042515   0.1902949  40.6193256
  57.8330469   0.6668101  40.6669664  57.0085382  -0.2114088  39.7505069
   4.6175145  91.9154966  63.4477329   4.2317294  92.1034074  64.3033552
   3.8790273  91.6309596  62.9093027  34.7455262  96.0166562  32.1540093
  35.2858447  95.2571750  31.9361234  34.2177152  96.1679590  31.3699460
  48.1743860   8.6265677  43.0920696  48.5643911   7.7598578  43.2058430
  48.0621433   8.7163490  42.1457243  18.8418578 102.4837989  66.3376474
  18.9130639 102.7792553  67.2453213  18.7790679 103.2911027  65.8272076
  54.6775913   0.3038641  49.0678883  54.9037218  -0.5926979  49.3154240
  55.1969242   0.4735633  48.2819319  48.8645124  14.1428745  35.0134993
  48.5062981  13.3012879  34.7312880  49.2937708  14.4941735  34.2333961
  84.2381576 103.0008594  33.1441879  84.9880133 102.6815618  33.6461806
  83.8880465 103.7210608  33.6685562 103.9713976  97.0764322  34.8004675
 104.6771977  97.5727499  34.3860435 104.1314480  97.1709484  35.7394457
  25.3825974  25.8862472  39.4961047  25.6435728  25.3994799  38.7143254
  26.1547947  26.4034605  39.7250962  34.6017718  23.2963276  56.8519020
  33.8416600  23.8742113  56.9190931  35.2785707  23.7293267  57.3721790
 112.2602127  91.4881802  51.8845701 111.9479916  90.8152676  52.4895000
 113.0771492  91.1340201  51.5332651  53.9339638  35.3735685  25.4799318
  53.6392117  34.9336672  24.6825361  54.8885345  35.3092146  25.4500961
  12.8684747  42.9190159  33.2701850  13.3826196  43.7128353  33.1227422
  12.8861201  42.4625444  32.4290252  17.8595126   7.8047943  41.4750242
  18.4777045   7.6259768  42.1836138  17.0075822   7.8580379  41.9081640
  34.2374539   5.8428752  54.6753073  34.9356556   6.1778212  54.1126728
  33.6834049   6.6040051  54.8483515  61.6495750  97.7205438   5.9022707
  61.8270252  97.2744084   5.0741971  62.5134907  97.8546382   6.2920171
  44.6321964   8.8945681  61.5217400  44.1454220   8.1005192  61.7425728
  45.1849461   9.0570271  62.2861433  13.3143032  34.0108943  42.0401859
  13.4649718  34.9138927  42.3196936  14.1914320  33.6534190  41.9020271
  29.8977399  29.2490029  68.4997654  30.6805182  29.0686703  69.0203142
  30.2261496  29.3769479  67.6098204  29.7839618  22.4476695  35.8046985
  29.7540402  21.4916635  35.8419514  30.0367379  22.6444197  34.9026847
 105.1946709  96.2359465  50.5255413 105.2290318  95.2828765  50.6074381
 105.6825254  96.4252115  49.7240353  21.8591332  13.8721871  12.6475763
  21.2165236  13.1630468  12.6274419  22.0286679  14.0154123  13.5786915
  51.3585520  23.9618659  44.7056437  51.3663530  24.8557711  45.0478554
  50.5481720  23.5823655  45.0454950  42.2246695  31.9855261  14.1483867
  42.2825336  31.0302496  14.1301954  42.1335649  32.2023320  15.0762486
  16.3552237  31.9606876  52.5715160  15.6007552  31.7474461  52.0223951
  16.9977331  32.3271179  51.9639492  74.8895683  89.1077674  63.7009287
  75.4626602  88.5627521  63.1617117  75.1633964  90.0049389  63.5103130
  41.3909245  11.7215002  47.9526758  42.0747852  11.9320703  48.5884666
  41.7864513  11.9146371  47.1026850  70.5570412  12.4152732   7.1225208
  70.6607628  12.7796209   8.0015683  71.4251184  12.0800567   6.8982297
  26.8851018  10.4244959  46.9152832  27.0678020  10.9028685  47.7239943
  27.7251935  10.0354457  46.6721344  22.6772833   3.3721915  36.2198544
  22.3637891   2.7828142  36.9058466  23.4168863   3.8312033  36.6180086
  32.4309444 105.2827500  11.7179441  31.8777703 104.7193418  12.2590578
  31.8161678 105.7500300  11.1523175  30.5009723  11.3143420  34.2573595
  29.7513604  10.9508789  33.7859678  30.4061866  10.9826016  35.1502180
  40.9629488  36.1980963  45.3631592  40.7766151  35.4516220  45.9326220
  41.8079472  36.5276742  45.6690836  74.5400147 104.3008131  56.0628223
  74.6367743 105.1972136  56.3842773  74.0516808 104.3912137  55.2445364
  80.8866119  23.4802246  47.8114843  80.9754944  22.5817609  48.1294394
  80.2645016  23.4173751  47.0867395  33.3898067  82.0547581  24.3881559
  33.1740737  81.1346626  24.5401645  32.7559447  82.3441219  23.7318635
   4.6285628  75.8669997  40.6975603   4.1310500  76.6766739  40.8121872
   5.2728128  76.0754943  40.0210142  20.8595872  36.1827350  62.6136732
  21.2357354  35.3709459  62.9538822  19.9274302  35.9905410  62.5118208
  68.8246032  71.9067817  87.7506933  69.6260330  71.6326230  88.1965375
  69.0343496  72.7677923  87.3888952  34.0199542   8.6197221  65.1688242
  33.2928824   9.2178839  65.3414631  34.7862196   9.0626341  65.5333757
  10.0964284  10.7283914  38.5919213   9.8646861  10.6006479  37.6720238
  10.6922793  11.4775038  38.5870099  29.8247170  31.4604330  62.7182770
  28.9530325  31.7479181  62.9898500  29.6736002  30.6283975  62.2698212
  80.1306439 105.6028492   3.2865631  79.6484710 105.2336772   4.0264713
  80.3568459 106.4897616   3.5666477 112.3289011  75.2238727  66.5238810
 111.6909955  75.4717804  65.8546686 112.0958588  75.7549883  67.2853518
  52.5690699  18.9133394  23.1021380  52.3830318  19.1536701  24.0098071
  52.9480982  18.0362511  23.1594777  58.0367851  10.9046948  52.1004486
  58.5998344  10.1307368  52.0865107  57.2531891  10.6223559  52.5721455
  25.5486488  39.3023539  58.8924360  24.7634411  39.8492146  58.9173412
  25.6977296  39.1396022  57.9610300  38.9732432  23.6095715  34.5965338
  39.6397328  24.2879891  34.7050405  38.1539011  24.0932894  34.4920135
  34.4178963  12.0739317  30.1406813  33.8049650  11.6403115  30.7344174
  34.1478276  11.7890346  29.2676830  64.9590826   5.6104463  57.7955580
  65.3368568   4.8402619  57.3709011  65.6342316   5.9012544  58.4086132
  33.1331849  15.5310035   5.2552462  33.6659956  14.7738385   5.0122571
  33.3639193  15.7031989   6.1681217  43.9136410  19.7862113  30.7051730
  43.5760260  20.4473424  31.3094521  44.6070814  20.2353549  30.2218056
   7.9851388  91.0857940  47.7122498   7.4622869  91.6914750  48.2376146
   7.5657319  91.0915340  46.8518448  47.6678181  40.5553150  31.7288399
  48.2273674  39.9564862  31.2343240  48.0844545  40.6176805  32.5883484
  59.6475315  29.2849207  63.9871836  59.1330957  29.8994637  63.4638071
  59.1135693  29.1281533  64.7659922  24.7459960  37.1603632  56.2990761
  24.3639731  36.8246531  57.1099949  25.5277705  36.6250563  56.1630392
  57.3044682   0.5348227  37.3723292  56.5007496   1.0386419  37.2441411
  57.4421692   0.0870565  36.5375972   8.2893180 101.0222787  25.8021569
   8.1076287 100.7741249  26.7086005   8.3199691 100.1913876  25.3279066
   6.8470782   6.2698960  24.7578263   6.4980680   7.1362293  24.5483279
   6.1097443   5.8034176  25.1514864 108.8935659 104.9714202   5.3147656
 108.0402587 104.5655156   5.4675353 109.4949768 104.4837323   5.8775246
  48.6023998   2.9875785  29.1213012  49.3915939   2.9980743  28.5797358
  48.2505035   2.1038154  29.0147042  22.1413993 101.4668680  74.7299385
  22.1003913 101.2697805  75.6657267  21.8638181 102.3806474  74.6652317
  42.1520376  10.6851554  32.2960973  41.8948555  11.3560188  31.6636157
  43.0973482  10.5934441  32.1769142  23.2728434  12.9161441  25.1970148
  22.9914379  13.7400866  24.7993207  22.4584198  12.4835968  25.4536200
   9.9180698   1.7458349  36.1218929  10.1015711   1.0632796  35.4763865
   9.5163965   1.2800843  36.8553543   0.8465265  81.3469458  70.0516129
   0.0503539  81.0882211  70.5157328   1.1386465  82.1400691  70.5008888
  46.5236092  39.0601230  20.1814389  46.7483377  39.8063493  19.6256757
  46.3315868  38.3524704  19.5661426  73.7377349  84.3447757  49.1410398
  73.0600779  84.0955115  49.7694349  73.5837854  83.7778545  48.3853054
 107.8975318   4.7895467   5.3463084 107.9778694   5.1020038   6.2475014
 107.1448694   5.2647209   4.9942577  24.3725920   8.5094047  16.8580878
  24.1243124   7.7079648  16.3973451  24.0491247   9.2165542  16.2999296
  95.2176890 102.8858308  12.6348269  95.2968273 102.7957604  11.6851664
  94.3567321 103.2827634  12.7668476  22.0709777  40.9628344   5.5510008
  21.9353914  40.5051327   4.7213286  21.2129998  40.9490156   5.9751636
  17.4587071  30.1021552  23.5485578  17.0147741  29.8580551  22.7364182
  16.8580568  30.7129693  23.9755893  27.9210210  30.0003934  65.2645683
  28.3154154  29.4471669  64.5903111  27.5544167  30.7414103  64.7821474
  51.4811850  23.0407190  23.7429214  51.6448736  23.2782793  22.8302312
  52.3510647  22.8784132  24.1078806 111.6009567  96.2034953  43.8037920
 112.1610806  96.2234319  44.5797396 110.7561324  96.5335286  44.1096973
  19.6189593  94.7732628  36.6147971  19.5402335  94.2769874  37.4295020
  20.0794601  94.1830016  36.0183382  22.9385448  62.1755266  35.6482244
  23.8588095  61.9167566  35.6970358  22.7596474  62.2484350  34.7107220
  36.8632221   6.3231611  56.9396639  36.7701674   7.0857310  57.5106812
  35.9813404   5.9548217  56.8863583  36.9463801  16.1069870  20.3253603
  37.5166845  15.8919370  21.0634232  37.3146534  15.6198895  19.5882428
  14.9247789  48.9202976  50.5212259  15.2554250  48.4091663  51.2599087
  13.9948153  48.6986113  50.4737329  28.7139177  26.0817695   3.7416044
  29.1143799  25.7714176   4.5537281  29.2453408  26.8355131   3.4853005
  61.1790848  21.9857001  38.1220937  61.5502977  22.1971798  37.2655249
  60.3226471  22.4131799  38.1241274  27.9945588   2.2221634  43.7741709
  27.9902673   1.6885282  42.9795361  27.7326083   3.0940759  43.4785652
  32.6793981  19.9991000  43.1773329  32.3269844  20.7750916  42.7415848
  32.0968437  19.2885041  42.9091597  93.1552491  96.9244552  51.0649490
  93.9151273  96.5358019  50.6316280  92.6974723  96.1812771  51.4578342
  31.3918662  37.0738411  44.1332293  30.7494569  37.0022750  43.4272432
  30.8669710  37.2130251  44.9214840  60.9317589  35.2890730  28.8444281
  61.2572145  34.3952751  28.7374902  61.6130543  35.8397985  28.4587264
  27.2172642  50.2993202  60.7707644  27.9005218  49.6954393  60.4796934
  27.6504588  50.8580923  61.4160109  10.4315114  25.7088804  45.5436850
  10.7558632  25.6020141  44.6494770  10.6723642  24.8942351  45.9847927
   9.8797685  24.4939137  20.4166341  10.0416744  24.4907355  21.3600349
   9.6507084  23.5878134  20.2098775  35.9471631  48.1194019  37.6390481
  35.5935788  47.4591017  38.2350445  35.8891892  47.7159309  36.7729759
  57.4126959  21.9620442  52.4303484  58.1477928  22.5616336  52.3024559
  57.6360130  21.4750934  53.2235956   9.1759527  54.9606943  49.4308376
   8.9555335  54.0910625  49.0970850   9.2908937  55.4964161  48.6459637
 109.0252258  30.5471468  55.0247097 109.6255763  29.8157167  55.1690006
 109.2040966  31.1498022  55.7465410  47.5020313   0.6630259  21.1624789
  47.8305817  -0.1996337  20.9092903  48.2854795   1.1550896  21.4080667
  49.4474459  12.4242961  32.1556807  49.3856001  11.4903700  32.3561502
  49.3404436  12.4729514  31.2057257  93.8670445  86.4674885  11.1830151
  93.9645243  86.7949064  10.2888500  93.1829310  87.0166643  11.5659249
 106.5211420   7.4461794  44.6766567 107.3434268   7.5657827  45.1518154
 106.7760037   7.0125377  43.8622665  29.8606586   2.6025254  80.7218647
  28.9829445   2.9516160  80.8767319  30.4220414   3.0897042  81.3249683
  21.0342550  31.2065268  28.1921887  20.3731680  30.7157207  27.7040219
  20.7470489  32.1178031  28.1345606  24.2479634   6.4848393  81.8160820
  23.4708166   6.2113273  81.3287735  24.9125266   5.8332491  81.5924358
  51.4389467  39.6215129  53.8426685  52.0301771  39.4237852  53.1163216
  50.7418823  38.9697433  53.7683344  39.1003633  27.1731973  66.1272669
  38.6986995  27.8025723  65.5282831  39.9689579  27.0123959  65.7586002
   4.9830011  61.6774893  49.0948296   4.6154726  62.3270607  49.6941757
   4.7783071  60.8348131  49.5000792  86.6436992  98.9611066  47.8380728
  86.8700812  99.8277355  47.5005245  87.3017082  98.3775408  47.4603081
  30.4832172  28.1526136  49.8311853  30.9724665  27.8413820  49.0696049
  29.5935869  28.2885814  49.5051432  72.9018465 103.6953089  60.0697470
  72.6043371 103.6216653  59.1629410  72.2685734 104.2824230  60.4826546
   4.4442976   2.4700676  59.9398899   4.0068030   1.6187215  59.9462128
   5.3676105   2.2659856  60.0884676  32.4124479  15.1137114  53.5762262
  31.7834210  14.7004557  54.1676474  33.0661416  14.4346857  53.4093714
  90.9057555 100.9389103  43.0140066  90.7572589 101.6242987  43.6654854
  90.5531786 100.1453078  43.4166431  58.7317657  32.9196239  10.3058624
  57.8220987  33.1396961  10.1051092  58.7976837  31.9825745  10.1219463
  38.8769937  18.1217730  43.5570812  39.3058801  18.5605621  44.2917585
  39.5953608  17.8654814  42.9787254  22.9896355  28.0663037  70.5676603
  22.9796934  27.2901011  70.0076199  23.9113140  28.1838846  70.7976961
  14.1850662  21.5213156  46.3856220  13.3462965  21.8515348  46.7075682
  14.5247591  22.2267389  45.8349705  24.6503472  15.5687141  35.1498938
  24.6489978  14.6115434  35.1425600  25.3167772  15.8122158  34.5073891
  36.3423562  11.6761005  33.2874751  36.8349290  11.7447674  34.1053319
  35.4477525  11.4757848  33.5627723  22.7489948  41.9004440  74.4550323
  22.2221875  41.1730671  74.1239357  23.5794711  41.4982796  74.7095966
   8.3229691  13.6530232  64.4322014   8.2116461  14.5007086  64.0017748
   7.5888520  13.1259727  64.1167307  20.6499743   4.9149144  41.2099934
  20.5391502   4.4987977  42.0648623  20.5649257   4.1977906  40.5817175
  59.3569279  25.9188390  35.8415914  60.2248764  25.6915855  36.1751413
  59.1994715  26.8049049  36.1676717  75.9293229  94.2912961  43.0426311
  75.2822809  94.5721734  42.3955822  75.6910560  93.3859635  43.2422161
  44.0581226  19.2498374  69.1757631  43.1473160  19.4258988  69.4116974
  44.0045547  18.8017666  68.3316088  20.5896115   9.5009536  53.1043768
  20.3886271   9.4534171  54.0390301  21.1640048   8.7521207  52.9445171
  65.9241152  18.3095086  55.4816055  65.3795481  18.2900178  56.2685633
  66.3371277  19.1728723  55.4974651  54.1027593  99.2781401  50.5106497
  54.4529580  98.4634203  50.8709526  54.3782281  99.9525428  51.1315536
  19.1177523  18.6524200  26.8533754  18.5659647  19.4193625  26.6998792
  18.5419047  17.9060030  26.6875577  54.1042185  18.8704574  44.8906803
  54.0969419  19.2594886  44.0161324  54.6020174  19.4899213  45.4242468
 109.2329857  79.0576053  21.4929557 109.8845933  79.2622185  22.1636081
 109.6835134  79.2193175  20.6640387  40.7009697  33.7205768  54.4599819
  41.0789108  34.4700480  53.9998913  40.3663158  34.0861511  55.2788782
  16.3783896  13.1147730  39.4396687  16.4854002  13.9717770  39.8523760
  16.0859168  13.3122647  38.5499001  48.9356279  20.8817697  38.9778233
  49.0950012  20.9027910  38.0342174  48.3155870  21.5945315  39.1319418
 105.9779069  91.5869856  31.3196945 105.2137182  92.1142090  31.0867095
 105.6339452  90.6998873  31.4244795  12.0267629 104.9004984  13.1197548
  11.6708087 104.1116298  12.7108335  12.7525376 105.1582580  12.5513864
   8.3893538   2.6310012  13.0706000   9.1969633   3.0002293  13.4279096
   8.5549420   2.5574467  12.1307051  47.6665068  31.2170506  75.6710863
  48.5249901  30.9052539  75.9574652  47.0901060  30.4598165  75.7739878
   2.2146091  10.6314456  85.7983685   2.2916621  10.1842940  86.6411877
   2.2783515   9.9311203  85.1489735  20.9014058  35.8571696  53.9097214
  20.6341100  35.5723119  54.7835875  21.4816666  36.6018844  54.0676165
  22.6825881  52.5046206  52.1279812  21.7324710  52.4418640  52.2258091
  22.8080964  52.9584742  51.2946129  61.7712784  15.3014874  61.0178089
  62.2673845  14.9142396  60.2965927  62.1320915  14.8916042  61.8039656
   2.4248058   7.3376215  50.4934454   1.5833801   6.9756669  50.2155542
   3.0733591   6.7137057  50.1673508 102.5913808  42.7121859  66.8360102
 102.9915854  41.8917304  67.1239698 101.6631409  42.6131158  67.0476401
  42.8270197  15.9796977  53.8731050  43.2204676  15.9781289  53.0005074
  43.5163069  15.6457984  54.4472313  40.1990032   3.8614613  50.6518459
  40.0324678   4.1438532  51.5511513  39.5561624   4.3393469  50.1278114
 104.1483937  17.4346018  55.0145769 104.1956548  18.1188917  54.3469334
 104.8764704  17.6260674  55.6057405  29.7090888   5.5051100  43.3812523
  30.3181601   4.8648167  43.7490702  30.1492262   5.8308309  42.5961304
  17.4654222  32.6154494  60.0744772  18.0043638  32.6499701  60.8647823
  18.0839527  32.4177623  59.3712187  27.5185752  36.1850452  24.4994712
  27.8092408  37.0049596  24.8988318  26.6244245  36.3641286  24.2085171
  32.7771258  30.1897764  57.7704239  32.8407192  30.6843162  56.9533443
  31.9651914  30.4969311  58.1737232  21.1997700  34.5819616  18.7876189
  21.5211415  34.2401600  19.6219587  21.5103793  33.9535880  18.1357741
  12.9015302  95.6970645  37.3086524  12.5063705  95.9400941  36.4713836
  13.5606479  95.0413240  37.0810556  64.2710733  33.7119150  40.0332832
  63.8674498  33.9890885  39.2107916  65.1926374  33.9537525  39.9412823
  36.4969778  39.1880798  82.9414558  35.7476711  39.6178007  82.5290012
  36.1868715  38.3045816  83.1401920  54.0257549  34.2045069  20.2141905
  54.2289257  34.1547251  19.2801273  54.8740387  34.3381333  20.6370258
  61.4161491  34.4726205  41.2325525  61.8762875  35.3115582  41.2587309
  60.8565569  34.4820356  42.0090866 110.8783529 106.3795863  27.3638797
 110.8040736 105.8136270  26.5955019 111.0038898 105.7750955  28.0953598
 105.9145973 101.7916722  20.0309968 106.7104600 101.2657065  20.1096916
 106.2256620 102.6599184  19.7748339  47.1102619  15.4694271  20.6275845
  46.2038136  15.3486657  20.9104300  47.0408297  15.7565808  19.7171164
  97.2616885 102.1171308  14.2726612  96.7189930 102.4141530  13.5422564
  96.7708466 102.3706690  15.0543427   0.8200432  50.6690598   4.9249110
   0.1868715  50.0334835   5.2586246   1.5323031  50.6558943   5.5642426
 108.4172080  76.4298463  43.1623268 107.4714992  76.3888336  43.0202579
 108.5481618  77.2282386  43.6738491  39.3443990  12.0198703  37.2623658
  38.7907171  12.3937345  37.9478550  40.1156664  11.6958988  37.7275753
  38.2893038   9.0354103  36.1467791  38.7548542   9.6699739  35.6019616
  38.2198358   9.4594491  37.0021129  53.6092472  21.8066216  25.2434564
  52.9675198  21.5828538  25.9175086  54.3855381  22.0789289  25.7327962
  16.4934433   9.4522047  39.5377421  17.1894586   9.9790615  39.1450357
  16.9541299   8.8174772  40.0864840  32.2353339  29.7798181  83.1532955
  31.9512463  29.0429711  82.6123905  31.4710069  29.9925089  83.6888313
  26.1167789  20.0472617  36.4725375  26.3943028  19.1362870  36.5691757
  26.6902447  20.5362344  37.0626855  61.7971182  15.4540026  28.4976721
  61.1153841  16.1249685  28.4619761  61.7829466  15.1461279  29.4038963
  50.0650454  24.9171281  13.5137558  50.9500694  24.7127771  13.8157499
  49.5474863  24.1475391  13.7506044  62.8599072  31.6780686  37.9738021
  62.6593161  31.3026690  37.1164393  63.2647896  30.9603047  38.4607506
  38.1794095   5.4559219  49.3248558  37.3249722   5.0608772  49.4983625
  38.1036162   6.3484341  49.6623611  98.4380910 102.4592558   4.2429835
  98.3120272 102.9234869   3.4154397  99.2941210 102.7531922   4.5545080
  55.0889778  20.9625483  86.9556808  54.4779634  21.6910124  87.0662880
  54.8583841  20.5831838  86.1076546  27.2363114  13.3209848  43.8505507
  26.9576049  14.1250622  44.2887449  27.1368957  13.5099030  42.9174614
  41.5489244   6.0600048  47.8097200  41.4408970   6.8722486  48.3045149
  40.7818794   6.0238487  47.2382593 104.9713728  74.5761490  30.9638858
 105.7147524  74.2679692  31.4821911 105.1989124  75.4760933  30.7303119
  27.6960516  37.9686785   6.2464023  27.8593421  37.4748969   7.0499855
  26.7487884  38.1059837   6.2379640  11.6411138  22.0479083  31.1781359
  11.6458845  22.6495504  30.4336643  10.7963574  21.6015530  31.1199522
  33.2069516   8.7010121  54.8722649  32.3810768   8.7750781  54.3940639
  33.4070969   9.5965213  55.1447296  48.3109570  35.0482321  40.9134817
  48.1489515  35.8728361  40.4552126  48.4339952  34.4059348  40.2145195
  25.1539779   6.2865561  53.0967855  25.2487397   5.4943401  52.5679731
  26.0401821   6.6437668  53.1539917  17.7374887   3.8512199  81.3206959
  18.3014011   3.3619277  80.7216740  16.8869876   3.4165590  81.2578070
   6.4947938 103.7577737  27.9074335   6.7366265 104.5375962  28.4070611
   5.7221412 104.0230200  27.4085498  35.6917000   9.2411768  11.6060686
  36.1855221   8.8800389  12.3422420  34.7778225   9.0429407  11.8104255
   2.8097871   7.7962261  33.5531807   2.9342735   7.2332048  32.7891493
   2.3643468   8.5707974  33.2098818   9.5075792   6.7174512  72.2348118
   9.9599093   7.4160856  72.7076149   9.4614947   7.0304996  71.3314247
  43.6662722  11.4468241  16.7693138  44.4332170  10.9842610  17.1070468
  43.2866669  11.8738019  17.5373125  17.5214517  20.7966113  71.0634899
  17.9120147  21.4384174  70.4703808  18.2612979  20.4501486  71.5623140
   6.9408464  89.3490470  21.3742995   7.0588111  89.2371047  20.4310155
   6.4116620  90.1423646  21.4570212  73.8345432  21.6715479  35.9135151
  73.1543255  21.2722874  35.3711843  73.3750868  22.3422861  36.4187288
 106.8805192 105.4027851  43.4172249 105.9574506 105.3510115  43.1692505
 106.8670437 105.5237619  44.3666553  31.6380668  22.8176093  62.0905352
  32.0367265  22.4451208  61.3040543  30.6969833  22.7908468  61.9176865
  45.5548811  36.0200000  58.6498070  45.3080034  36.4218831  59.4827366
  46.4316607  36.3596416  58.4705639  59.9153900  18.8322091  42.4060678
  60.7655573  18.5798645  42.7663040  59.3963623  18.0283475  42.4314737
  37.0667028  12.6772845  38.6450124  36.5041327  12.6726270  39.4194317
  36.4692855  12.8441405  37.9159832  32.6802111   1.2857030  23.6926556
  33.3104753   1.8870947  24.0893006  31.9445467   1.2716690  24.3048930
  47.2303343   3.3146322  60.0391674  46.8820143   3.1696141  59.1594648
  46.6869450   4.0154833  60.3993988  88.0484793 100.0186754  33.5361576
  88.9394782  99.8068131  33.8144851  87.9051969  99.4778771  32.7594733
  81.9616795  31.0788870  37.0606947  82.0411682  31.1794925  38.0092669
  82.5723457  31.7215204  36.6996694  11.3694501  54.8853207  51.2972593
  11.2385631  55.4859972  52.0309448  10.5324590  54.8885012  50.8328581
  44.7794247   3.6186153  66.2442398  43.9003849   3.9837530  66.1432600
  45.2814913   4.0002763  65.5241728  38.7113047  44.8928690  66.9003534
  39.2929101  44.7262859  67.6421165  39.0349436  45.7099295  66.5210104
  27.3941827   1.9314212  49.0837336  27.6197124   2.4355540  48.3019304
  28.2323861   1.5978000  49.4036484  36.6020465   8.8785076  73.9737511
  35.9854269   9.3186128  73.3886719  36.0536098   8.5096329  74.6661234
  41.0743475   1.6230920  49.1848421  40.2116251   1.2823747  49.4211769
  41.2653065   2.2781189  49.8561907  36.8144655  14.2702651  32.0378232
  37.1332645  14.8053277  32.7646708  36.6844749  13.4017956  32.4187374
  11.0459041  98.8560504  72.1978903  10.5967187  98.5630453  72.9907370
  11.8388080  99.2868680  72.5171614  53.3735037  41.3172483  38.8422751
  54.2113256  41.7684126  38.7386274  53.3236456  41.1163902  39.7768354
  54.3355465  22.5363016  66.5715218  53.7882042  22.8166175  65.8379889
  54.9590588  23.2524228  66.6924810   7.5757515  29.3607950  59.6397257
   6.9147837  28.7005591  59.8481560   7.2172254  29.8289227  58.8857031
  24.7811770  38.2542396  80.8810425  24.8609734  39.0651536  80.3787708
  24.0507126  37.7901030  80.4721069  39.9074793  49.3107033  19.2765605
  40.1207829  49.6573639  20.1429081  40.7423544  48.9913797  18.9341497
  35.3767467  60.9361553  21.8872905  34.5591521  61.0620594  22.3688674
  35.1128268  60.4998255  21.0772324  48.0785847  13.2216370   2.8890961
  47.1733713  13.3614385   3.1670710  48.0052805  12.8756595   1.9996257
  47.3552799  31.8346500  72.8591013  46.6924620  32.1730518  73.4610891
  47.8451443  31.1957026  73.3768034  66.8235174  90.9418274  61.8247461
  66.2826935  90.2102697  61.5271473  67.7008203  90.7386423  61.5002632
  21.3879466  50.6071281  20.9371185  21.4226747  50.7192802  19.9871457
  21.9427681  49.8462772  21.1089110  30.2790475  41.5781069  56.8665552
  30.7831931  41.2469959  56.1232948  30.7146907  42.3960638  57.1061182
  23.0773258  82.5986958  24.4195676  23.1331968  82.6456356  25.3739810
  22.4820828  81.8684864  24.2501187  67.6797724  33.3128405  47.5138283
  67.3249149  32.9675078  48.3330107  67.0907974  32.9779720  46.8376637
  75.4313326  52.7583885  21.5531421  74.9918699  53.6072206  21.5022230
  75.0355434  52.3288822  22.3114991  22.7384210  14.3386006  28.9547873
  22.3842525  13.9338458  29.7466016  21.9699407  14.5169997  28.4127116
  44.4472885  29.5562911  68.5638857  45.3786469  29.7290111  68.4261513
  44.0016174  30.1512957  67.9609108 111.3375169  27.4486732  44.5725679
 110.9563093  26.9376945  43.8585567 110.6101222  27.9738998  44.9061298
  60.1448584  17.5322795  71.3491440  59.9087334  16.7641997  70.8290195
  60.3066874  17.1865880  72.2269440  18.0557764  60.3621531  32.8396511
  17.2458696  60.5683565  32.3730016  18.7368989  60.4069901  32.1686125
 108.4729828  55.1878023  49.8683834 108.2400607  54.3505669  49.4671154
 109.2539655  55.4719734  49.3934679  62.0980787  31.9920135  42.3411322
  62.1082544  32.8932238  42.0187283  62.9701900  31.6546154  42.1366310
  30.8710027  26.8526101  46.6955280  31.7911816  26.8905210  46.4346313
  30.8004999  26.0476351  47.2086334  14.5160472  46.4296913  57.9815340
  13.5858750  46.2057018  58.0105639  14.5313120  47.3615551  57.7632856
  40.3091192  18.4414458  15.6193435  40.4478502  17.7300990  14.9940670
  39.5054293  18.8681281  15.3222680  82.4909019  22.2366548  36.0856533
  83.2419586  21.9022942  35.5954123  82.6030540  23.1872201  36.0768175
  70.5955935  23.1986332  32.6869607  70.5622196  23.1925011  31.7303610
  69.6842337  23.0909801  32.9591131  19.6505463  32.3939013  53.5444641
  19.2019415  33.2047200  53.3045483  20.4948950  32.4457765  53.0965614
   9.2352253  72.9989290  10.8112383   9.7518420  72.4710846  10.2023709
   9.7128284  73.8259268  10.8760715 111.1294720 104.2579124  29.3225217
 110.4070280 103.9248619  29.8548603 111.6466019 104.7904593  29.9268413
  38.6574745  34.0226078  64.8900414  37.8483319  34.4646716  65.1471424
  39.1411591  34.6800995  64.3900585  22.4233532  51.2085104  54.6576214
  22.5921774  51.4593220  53.7494230  23.1909823  50.6960011  54.9112129
  40.6827259  44.4717455  69.3531561  40.6672716  45.2425241  69.9205112
  39.9297953  43.9520264  69.6346188  23.0948067  38.4814501  50.4189110
  23.3982587  38.0620122  49.6137905  22.3166442  38.9722443  50.1546907
  65.3655624  21.1714673  69.2434502  64.8229218  20.4473352  68.9313507
  65.2508211  21.1644888  70.1937246  19.7786605  33.2302570  58.2111073
  19.7168958  33.8602304  57.4930906  20.0007439  32.4024153  57.7849722
  42.2213650  41.5353346  20.9365225  43.0411911  41.1498213  21.2455535
  41.6342402  40.7883263  20.8203411  57.9656076  15.1215136  67.4812460
  58.7133265  15.6885159  67.2924042  57.3423433  15.3049672  66.7783117
  83.3636665  18.4225440  15.9409988  84.1757488  17.9472876  15.7652438
  83.4409904  19.2268372  15.4278064  33.4164190  37.6543331  58.1949949
  33.9926839  38.4041166  58.3432341  33.9249969  37.0685458  57.6342535
  58.3697081  25.1981950  13.1131375  59.1973209  25.1116180  12.6400709
  58.0748367  26.0879230  12.9190624 111.5031344  50.2676296  44.1415119
 111.9511786  50.8348131  44.7690392 112.2002341  49.7325373  43.7620926
  26.6606998  54.6998549  40.8704662  26.9529748  55.5499077  41.1994267
  27.4698758  54.2300940  40.6684923  64.1112066  74.1738017   0.9957611
  65.0096250  74.2235358   0.6692612  63.6463357  73.6544998   0.3396713
  12.8408206  25.7014298  13.4697402  13.1945741  25.1903605  12.7417994
  13.2923782  26.5435100  13.4129226  32.7904177  79.8338747  41.7574358
  33.0497646  79.5584297  40.8781767  33.2452345  80.6653214  41.8918705
  36.1807775  51.4828634  78.4031916  36.9098520  51.7005777  78.9839506
  35.9707355  52.3066378  77.9632998  22.8619050  94.6712852  49.6946001
  22.9679584  94.0339327  48.9883661  23.0695295  94.1828573  50.4911900
  39.9873590  37.0055509  48.1683445  40.6027365  36.8622088  48.8873672
  40.3290510  37.7733397  47.7101135  56.0189533  89.5251751  61.9656563
  55.0727797  89.6252155  62.0704508  56.3934660  89.9952316  62.7106524
  30.8385563  28.0026221  42.7239561  31.7219234  27.7877712  42.4243927
  30.9595251  28.3186245  43.6193562  43.6265326  56.5316248  24.3982363
  43.7924480  56.0549498  23.5849214  42.6840878  56.4425993  24.5400357
  29.7796059  10.9261966  91.8440723  29.5418978  11.6828513  92.3799801
  29.3235302  11.0675061  91.0144615  33.2372475  39.4359255  69.7504663
  33.9715433  39.4449782  70.3644323  32.5792933  40.0008774  70.1556301
  16.8684840  23.4729338  59.1875267  17.6284957  23.2076263  58.6696196
  16.2292433  23.7699986  58.5399485  66.0173798  29.0013313  34.6676731
  66.1563873  29.6447062  33.9727092  66.1139774  29.5002961  35.4788065
  58.4534121  40.4600286  34.6890450  59.3726301  40.7254982  34.7172523
  58.4009075  39.7146583  35.2872896  23.9140964  45.9941387  44.4939041
  23.1151319  46.3997841  44.1572475  24.5909309  46.2380695  43.8625383
  61.0581112  47.3185110  24.7416925  60.1816416  47.1043015  25.0612903
  61.0181475  48.2537031  24.5415664  27.2834611  71.6136217  20.1478124
  28.1341815  71.9858599  19.9155593  27.2346306  70.7981110  19.6490204
  29.8024035  36.2613416  65.6605673  29.2574954  36.1575222  66.4406490
  29.4845176  37.0663595  65.2517557  31.4716864   6.3457274  41.1643744
  32.2147036   6.4873296  41.7509747  31.8204427   5.7926399  40.4653072
   9.4370443  47.5301313  24.7301531   9.1217166  46.9615316  25.4326415
   9.8325384  46.9313669  24.0966749  11.8852746  12.9484475  39.2138243
  12.7394950  12.5165761  39.2189074  11.9731414  13.6454427  38.5636640
   1.6109537 106.1657770  37.7724385   2.0966982 106.5750087  38.4885478
   1.7828917 105.2293003  37.8708267  36.2550092  42.5693130  81.1193085
  36.4838791  43.4300709  80.7686615  35.6228709  42.7540255  81.8139458
  26.8346810  11.1738706  35.9921408  27.7086830  11.4372289  35.7040524
  26.9772577  10.7628882  36.8447828  61.0251236  15.5765247  25.6374836
  60.6569910  14.6996963  25.5284858  61.8891811  15.4274869  26.0214448
   7.1952212  64.8038006  64.2219496   6.2386513  64.8351288  64.2069435
   7.4621487  65.2516031  63.4191704  31.6662097   8.5976839  74.9139929
  32.0443010   8.1153405  74.1787195  32.1940422   9.3938708  74.9749136
  47.4180412  40.5561829  52.9703474  46.6879702  41.1264801  53.2111549
  47.0081711  39.8238802  52.5099421  37.5446272  46.1458874  63.0480146
  36.8182302  45.5340481  62.9286909  38.2934141  45.5896902  63.2629490
  53.0548954  20.4138660  40.1951599  53.4180784  20.5863523  41.0638285
  52.1334267  20.2113104  40.3567171  40.9184408  23.2289100  37.7220178
  40.9395456  22.5397205  38.3859491  40.8884001  22.7582288  36.8890786
   5.2725625  40.8285189  31.2844610   5.1069427  41.6590118  31.7306471
   5.8624274  41.0561943  30.5658126  30.9132671  38.4667706  57.3070574
  31.6919708  38.2643366  57.8255844  30.9951353  39.3990088  57.1059179
  53.1669092   7.1530956  37.2778797  53.9592457   6.6343027  37.4167705
  53.2464600   7.8814209  37.8938699  44.8706341  42.4485683  57.0523930
  45.5009556  42.6067162  56.3495970  44.7178602  41.5039301  57.0290184
  38.2165051  45.0846195  58.5218239  39.0849423  44.6821451  58.5140038
  38.1631374  45.5225897  59.3712711  90.2966544  90.3586119  90.7664942
  90.8519503  90.4429429  91.5415850  89.7504136  91.1445873  90.7765329
  12.5917149  37.6444554  59.4202089  11.7306554  37.6169896  59.8374033
  12.8547871  36.7265558  59.3532133  24.6608901  37.9919720  72.6353073
  24.7819495  38.6742425  71.9749403  23.9589429  37.4427009  72.2863054
  49.4998932  33.8058472  81.1596584  48.9042568  33.1500483  80.7971954
  48.9635134  34.5936847  81.2481880  38.2885814   5.1936275  60.7920313
  38.4919071   4.7216198  59.9845028  38.3614039   6.1179012  60.5540228
  53.9207935  37.4949479  40.5138540  53.3951855  36.9982243  39.8867702
  54.8182821  37.4144650  40.1909542  56.5865326  26.1981893  46.8863916
  57.0427465  27.0352435  46.8001175  55.9554625  26.1940694  46.1666965
  27.0195317  62.5152159  45.4727268  26.6360235  62.2462606  44.6379709
  26.4760351  63.2486200  45.7607651  52.6721191  49.2866182  55.7842016
  52.9550934  48.9864731  56.6479540  52.1364975  48.5694599  55.4450464
  25.6341529   9.5250368  33.6971354  24.7599745   9.9044657  33.6072373
  25.8636069   9.6670443  34.6155119   2.4066725  28.0575013  11.9932473
   2.2945262  28.3584642  11.0915411   1.5224484  27.8318763  12.2821641
  86.3019393  32.3878217  24.6679139  85.7804249  31.7680430  25.1779413
  86.5156005  33.0866766  25.2861214  57.6981878  51.1480999  56.2116957
  58.4817886  51.4886141  56.6432667  57.8861618  50.2200842  56.0713911
 112.5481770 105.9891692  45.3714037 112.6065133 106.0524390  44.4180822
 111.9959567 105.2230132  45.5272532  15.0916398  31.6082883  63.8492012
  15.3865790  32.1550012  64.5774508  15.8993459  31.3138819  63.4282875
  29.8368502  67.8534651  35.9971046  30.3680205  68.5831308  35.6782317
  29.8357606  67.9559612  36.9488001  44.5427513  30.3225160  53.6528158
  43.9950085  30.4781485  54.4222260  44.3858671  31.0805798  53.0898237
  20.1940012  23.4985471  20.9839725  19.4132674  22.9845500  20.7778311
  20.8084297  22.8636241  21.3521814  36.3333035  10.5395126  60.0212193
  36.4431310  10.5571818  60.9719324  36.6610265  11.3891733  59.7264242
  78.3307266  20.3861952  38.5705495  78.4307337  20.2056527  39.5052338
  77.6538229  19.7751141  38.2796597  19.9887204  28.9001560  43.0807924
  20.9209180  28.6840725  43.0574274  19.8067367  29.0762424  44.0038872
  22.0044756  49.2076826  23.8715100  22.5811005  49.9352932  24.1045570
  22.3319769  48.9042425  23.0248094  55.7801819  47.3029375  56.3981676
  55.5511856  46.7237663  55.6712866  56.6760921  47.5818872  56.2090588
  44.6228409  25.2000475  43.1024981  43.9325237  24.5532060  43.2484150
  45.3544188  24.6939945  42.7490377  39.5033717  29.9149942  55.9934473
  39.5402193  29.0153360  56.3182402  39.9915457  29.8926830  55.1703930
  69.2984009   4.6591607  38.6099029  68.6497450   4.2122984  39.1537690
  69.4943333   5.4664803  39.0853786  12.2757030  25.1288748  63.2448769
  11.6796696  24.6066499  63.7817717  11.9249225  26.0181594  63.2934284
   8.8701445  73.2069969  30.3292131   8.7992460  72.3386192  30.7256055
   8.0787408  73.6649132  30.6124520  26.6778612  80.3872108  23.8772249
  26.0006309  79.7152185  23.7996149  27.4043703  80.0572681  23.3484960
  75.2953243  31.4105582  80.9852505  75.0766706  30.6538796  80.4413128
  74.5461082  31.9986081  80.8898544  37.0345736  42.4433279  59.9549294
  37.2547960  41.5354156  59.7465277  36.1650944  42.5719547  59.5758677
  35.3264809  40.9904242  37.4451399  35.4084134  40.5138206  38.2711959
  34.4938540  40.6928682  37.0785046  21.9386864   9.5837492  28.3913064
  22.4291992   9.0933430  27.7316618  22.5303793   9.6331793  29.1420960
  14.8784375  45.4061985  37.5932646  14.0429604  45.6597519  37.2009397
  15.1073670  46.1396408  38.1641269  40.1335907   5.1247686  53.4972048
  39.8012471   4.9788877  54.3829203  41.0765457   4.9761102  53.5676956
  30.0247741  25.4173803  22.6369929  29.9960423  25.6052518  23.5751343
  29.5738482  26.1574721  22.2305942  52.5366306  48.9546967  73.3011866
  52.2984028  49.0328074  72.3774004  52.7871132  48.0369520  73.4071684
  31.8523431  52.8075504  61.8293524  32.0778584  53.4964275  62.4545097
  32.4558735  52.9405165  61.0983896 105.0326435   5.6436694  46.3426828
 105.3908537   6.2023520  45.6529045 105.2552234   4.7536162  46.0697460
   3.2562006  42.9137039  10.6075418   4.1979274  43.0661631  10.6858873
   2.9841554  42.6401854  11.4835620  39.5555758  51.4689779  59.0202761
  40.1316023  51.9210386  59.6367693  38.9631844  50.9608793  59.5744801
   0.8958366  80.9647751  63.1995535   1.2976047  81.7854500  63.4846926
   0.3032854  81.2210560  62.4928427  26.7477846  45.1377964  72.9513836
  25.8894134  44.8050880  73.2135582  26.5640783  45.9909153  72.5580931
  37.1829176  37.9770517  70.2619219  36.4444351  38.5095119  70.5574894
  37.9235053  38.2829523  70.7855511 112.6776886  45.7999563  41.4235735
 113.5058298  45.3669691  41.6307783 112.5282472  45.6012774  40.4992247
  26.0794282  32.7211928  44.3698072  26.7228985  32.1528316  44.7930574
  26.4113855  33.6074114  44.5135164  34.7471666  31.1120653  16.0162556
  35.2203989  30.4054427  15.5769753  35.4166412  31.7713976  16.1987805
  39.6606733  88.7868875  78.6175132  39.7711371  88.8337153  77.6678622
  38.7686418  89.0984886  78.7705338  42.7475882  42.0090151  40.7027435
  41.8612957  42.0378637  40.3423500  42.6625538  42.3865271  41.5782356
  78.8886500  82.5540168  30.0035107  79.1781426  82.4537380  30.9103501
  78.3046008  81.8103511  29.8549091  30.4775620  70.7755804  60.0944757
  30.0657964  71.2265396  60.8315706  30.8197856  69.9646854  60.4707289
  34.1436410  35.9840417  42.0094919  33.8142061  35.2472162  42.5240660
  34.9293971  36.2694669  42.4757004  57.3564386  18.4622955  65.3666878
  56.4785671  18.8226175  65.4921389  57.2140980  17.5248492  65.2356720
  56.0882044  39.8305893  33.6679029  56.6605282  39.6448565  32.9234719
  56.6737700  40.1828289  34.3381786  33.4103918  27.3574114  42.1255636
  33.3322191  27.9083204  41.3467026  34.0449882  26.6841841  41.8800306
   1.9818753  61.7044830  55.1175928   1.6769847  61.8429899  56.0143042
   2.8962111  61.9874859  55.1290989  54.4910431  31.6459894  13.1958652
  54.7804308  32.4095583  12.6964152  53.5357761  31.6717768  13.1408274
  40.9558153  37.5105548  41.0051012  40.4991913  37.2580910  41.8075895
  40.9692812  38.4673834  41.0280943 110.3095330  35.0779510  52.2551203
 110.9999166  35.7220578  52.4123716 109.7436951  35.4881811  51.6010761
  28.9973736  35.5568624  46.9583225  29.8113155  35.1233816  47.2148848
  28.6053109  34.9679589  46.3135624  69.6000291  78.4298713  13.3157074
  69.8927880  79.0566547  13.9772713  68.6655594  78.3169873  13.4896385
  17.2348154  36.0757327  62.6315260  17.3780119  36.5843177  61.8333626
  16.3541484  35.7145238  62.5306034  34.6185350  50.5418968   8.9216638
  33.6683106  50.4510403   8.8505906  34.9611020  49.6873379   8.6597258
  14.9774744  88.5617716   2.9891693  15.3283694  89.2775114   2.4592507
  14.4971087  88.0160053   2.3665821  41.3347435  26.4756370  54.0448761
  41.6002941  26.3390398  54.9542999  42.0153475  26.0432291  53.5290956
  44.8288488  34.0230823  67.6110792  44.5920324  33.9076972  68.5313129
  45.0364399  34.9541569  67.5321102  39.5980883  40.5081224  42.1224642
  39.4130254  39.7450113  42.6698589  40.4176998  40.8593893  42.4704218
  21.1926651  52.4929476   7.7491575  21.3774920  53.1526661   8.4176219
  20.4837704  52.8711748   7.2289205  20.1709080   1.9442521  20.3003621
  20.9572268   1.4610152  20.5541635  19.7658825   2.1955866  21.1304331
  35.1507473   9.8410851  72.0146465  35.5720901  10.4915226  71.4528322
  35.1507425   9.0383154  71.4933062  63.5446596  12.7405608  50.1533890
  62.6009464  12.8589571  50.2611685  63.6951637  12.8576839  49.2153788
  50.4545927  31.8017149  41.5373087  49.5952082  31.4373183  41.7492199
  50.5691528  31.6184092  40.6048346  17.3485768   7.5208104  32.2004151
  16.6295147   6.9628102  32.4967551  17.9891741   6.9114071  31.8336797
  31.9091201  67.0074892  67.0079565  32.4871612  67.6826859  66.6526937
  32.4093485  66.1956978  66.9243336  39.8185205  95.1763630  47.0455599
  39.9060392  96.0338116  46.6291857  40.5493689  95.1338482  47.6622343
  57.4587440  10.2869868  56.7333031  57.7213812   9.3675971  56.7777538
  58.0629444  10.6784463  56.1024761 106.1444531  18.2559848  45.3319836
 106.7772160  18.7027943  45.8943033 106.6814475  17.7716827  44.7048283
  21.1289048  36.3344908  49.3941116  20.8009124  35.8489847  48.6371851
  20.6061339  37.1361828  49.4093037  50.0584555   6.7695659  46.1430120
  50.8520031   7.0488662  45.6863880  49.5379925   6.3291079  45.4711866
  58.1280994  19.3520319  34.1343093  59.0160418  19.1205215  33.8619208
  58.0317545  20.2702093  33.8815236  43.5586452  29.7598767  57.7312756
  43.0952692  30.5095005  58.1048775  44.4812536  30.0140214  57.7519989
  47.8641081  78.9459276  21.0642743  47.3116732  79.3279123  20.3822660
  48.7534618  79.2088270  20.8272886  37.1806073  35.9315109  54.1239738
  36.6422272  35.7177281  53.3619547  38.0290651  36.1785126  53.7560892
  53.9803219  19.4192827   3.2170001  53.9617014  20.3669620   3.0836263
  54.7911119  19.2613626   3.7006438  35.1962566  14.3431258  44.8942327
  35.6983423  13.5448515  44.7302198  35.5248666  14.9695039  44.2493296
  26.6799521  19.1487849   7.5118929  26.3491535  19.4632089   6.6705006
  25.9697056  18.6115599   7.8628516  22.6160336  31.5843558  61.4392138
  23.5499501  31.7286181  61.2868261  22.5433850  31.4658880  62.3862743
  58.7972879  22.3269010  48.5103321  58.1843519  22.2917461  47.7759600
  59.6465015  22.5030279  48.1053066   4.4405377  30.4552650  38.8482165
   4.9523771  29.8041677  38.3682919   4.8917675  30.5432510  39.6877885
  47.4537659  31.7211986  28.7340260  47.0118475  32.3277092  28.1398129
  47.8039122  32.2789192  29.4287062  34.3075109  27.1353984  81.1931419
  33.9432883  27.5312614  80.4013920  34.2699933  26.1931491  81.0288525
  26.3281703  28.4787273  52.1141481  26.7712545  29.3012714  52.3223019
  27.0386767  27.8534460  51.9711971  29.0176797  49.7870350  28.3218908
  29.2426872  50.0246477  27.4223661  28.0629444  49.8477268  28.3539724
  51.6187000  16.0761523  87.5218105  51.7151117  15.2608132  88.0139065
  50.7212639  16.0508680  87.1898460  15.4884529  54.3327475  72.7976179
  15.5902207  54.5749378  71.8771744  14.5453644  54.3792057  72.9546499
  33.6501575  22.6910806  46.5467167  33.0595374  22.0973134  47.0102262
  33.4839344  22.5190330  45.6198931  42.9633951  29.9653816  39.0657520
  43.3879900  30.6820083  38.5941601  42.3789406  30.4003215  39.6866131
  34.3647075  18.5964727  75.6832790  35.0426626  18.0501509  75.2856112
  33.7153578  18.7149048  74.9900627  38.2987332  55.2017117  37.8556180
  37.8047752  54.7325897  37.1831846  39.1763878  55.2967119  37.4855757
  36.3188148  70.8252287  45.8132744  36.3015008  70.0875139  46.4229584
  36.7418647  70.4773092  45.0282812  58.5776758  29.2757010  59.8193312
  58.5572433  30.0192714  60.4217577  59.2536879  28.6984038  60.1742554
  35.0832701  54.8816681  57.6648331  35.7628942  54.2313099  57.4876881
  34.8631907  55.2385759  56.8043613  26.1482263  75.9633732  47.9341698
  26.1209488  76.9110870  47.8025246  27.0746684  75.7675743  48.0741692
  27.1835232  44.4501829  45.8119917  26.6984367  43.6674881  46.0733652
  28.0819845  44.1445637  45.6871223  29.6544242  28.5512733  54.0729237
  29.2776370  28.7976956  54.9176359  30.5962658  28.5012603  54.2362213
  20.6879425  25.0163198  42.6477194  21.0102463  24.8259950  43.5286999
  21.4799261  25.1268601  42.1216202 112.2163317  87.8510881  76.5037870
 112.4727080  88.7619877  76.6478920 111.6093204  87.8871954  75.7645559
  55.9372187  45.0801182  19.6586525  55.9745121  44.5600939  20.4614091
  55.1781178  44.7378349  19.1865957 108.3995567  23.3294034  64.7213364
 108.5252635  22.8918052  65.5633211 108.9465304  24.1131139  64.7746992
  45.8917093   6.5772688  76.7315197  45.3496933   6.3901228  75.9650803
  45.8388042   7.5272667  76.8360901  37.9673362  14.1217554  18.2571852
  37.2065330  13.5792744  18.4648573  38.7107730  13.5209012  18.3072519
  45.1887512  38.6610508  53.9883661  46.0318947  38.7210083  54.4375277
  45.4047680  38.7520289  53.0603075  28.3405232  58.6556625  36.5379858
  28.3439231  59.6031427  36.6739869  27.9499221  58.5394144  35.6718731
  37.8229737  63.9219332  53.8743448  38.5399485  64.1073132  53.2678699
  37.3692155  63.1733418  53.4871149  50.0727463  30.7659245  44.9481678
  50.6811190  30.4244661  44.2927933  49.7253847  29.9864078  45.3816700
   9.9453568  42.6584721  63.1421757  10.4844165  43.0837440  63.8091040
   9.6715021  43.3714151  62.5651598  36.4698124  39.0656543  34.7973537
  36.4126539  39.9569917  34.4531441  37.3252654  39.0285230  35.2252007
  40.7877922  50.4516411  32.3810554  40.7687044  50.2679443  33.3202696
  41.6965818  50.2946901  32.1247292  41.8175364  32.3387861  57.7929211
  42.0892763  33.2456970  57.9339886  41.2010098  32.1602702  58.5030365
  36.6787577  46.2043810  51.3341808  36.0697365  45.5908251  51.7451239
  37.5270510  45.9993553  51.7273712  83.5779667  28.8218856  72.7767229
  82.7111721  29.1047716  72.4853945  84.1872597  29.3756914  72.2885704
  42.0987940  60.9681702  41.5032196  42.5346994  61.6540289  42.0090008
  41.6275072  60.4514647  42.1567774  31.5457749  59.8573637  46.2097979
  30.9522533  60.5781984  46.4204216  31.1481142  59.4342327  45.4488420
  61.3270140  66.0392618  50.9482479  60.5477619  65.7097149  51.3959026
  61.3285637  66.9789362  51.1305714  88.4859467  52.2703886  47.3408175
  87.7629471  51.6550016  47.2191715  88.7231255  52.1818066  48.2639265
  54.1339636  58.2499599  63.2860661  54.0710592  57.2948456  63.2807541
  53.9274502  58.4985828  64.1870499  62.3129654  70.0308084  31.5356231
  62.7969408  69.9922323  30.7106948  61.8344927  70.8587980  31.4941025
 105.7786655  99.3407631  38.4246421 105.4870892  98.5574532  37.9581308
 105.0083447  99.9086285  38.4440517  49.7282505  78.1493807  30.2599597
  49.2519140  77.6846170  29.5719695  50.6504631  77.9729128  30.0739026
  58.1846285  81.0803413  45.3137732  57.3040390  80.9229946  45.6544065
  58.6807919  81.3958168  46.0691071  66.8393135  59.1452503  53.3368492
  66.5201283  58.4151459  53.8672304  67.2609949  58.7288570  52.5851631
  73.8246679  50.9486818  60.4330111  73.2485151  50.5614567  59.7739744
  73.5330057  51.8577719  60.5017233  83.9126587  75.6861210  36.4615536
  84.1743851  76.5326595  36.8236279  83.0416584  75.5287123  36.8260026
  61.0956240  69.9965668  49.4525671  60.2419090  69.7638702  49.8176098
  60.8961678  70.3603458  48.5899496  85.3138351  96.8803215  30.5675364
  84.4438362  97.2455597  30.4065061  85.7001019  96.7886925  29.6965384
  68.2671070  53.6232138  34.4925976  69.1759825  53.3764982  34.6637821
  68.2395697  53.7983561  33.5519600  63.8353586  91.3773632  61.5931034
  63.2667208  90.6297207  61.4089489  64.4110203  91.0733318  62.2948217
  72.1864319  57.8591728  56.2928295  72.7169609  57.5447989  55.5607510
  72.5651312  57.4347448  57.0626879  71.5704489  61.8855858  59.7626066
  70.6213570  61.9401407  59.8743153  71.7010307  61.1310339  59.1882944
  85.3257084  79.2901325  18.4313107  86.2094021  79.3499851  18.0683589
  85.0836277  80.1961613  18.6229837  89.0349483  89.5407486  55.7838345
  89.4624805  89.3251705  54.9549913  89.6655750  89.2776489  56.4541483
  77.6380873  72.3489046  43.7675953  77.8923130  72.9628754  44.4565392
  77.0864487  72.8642750  43.1791019  56.2313223 102.5370312  26.2831998
  55.3401947 102.3269463  26.5624499  56.7050600 101.7079926  26.3502693
  65.1195574  81.3599205  43.0859280  65.8592606  81.0364723  42.5716829
  64.3719578  80.8469486  42.7790356  45.6997061  76.0721350  47.8037071
  45.7298470  77.0288563  47.8070116  45.8768654  75.8300638  46.8947268
  48.8990688  90.3454018  50.6875849  49.5729923  90.5773830  50.0486469
  49.3321705  90.4365540  51.5363169  57.1948910  69.1413069  20.6913710
  58.0340433  68.6821556  20.7265234  56.8717957  68.9822245  19.8045039
  76.4691162  81.1503696  34.9971533  75.6844902  81.2454891  34.4572091
  76.3553858  80.3087807  35.4387689  84.4594193  93.6007690  46.6682148
  84.4009876  92.6626968  46.4870167  85.3041077  93.8632298  46.3023520
  94.5024825   2.0502185  41.8305159  94.4050170   2.4962806  40.9892321
  95.3662635   1.6402244  41.7855692  38.4961557  93.3346844  36.4442682
  37.9007697  92.5933552  36.5545964  37.9526258  94.1050625  36.6095638
  25.8761504  16.6775035  32.6378489  25.3155520  16.4929962  31.8842435
  25.5284216  17.4918556  33.0013585  82.1484566  89.2384624  41.2529421
  82.9603672  88.7342358  41.3057852  81.4610481  88.6091518  41.4712524
 110.0347519  89.3877411  35.4772210 109.4890308  89.9190998  36.0569453
 110.9220123  89.4927979  35.8206820  92.7103043  76.6534805  51.1242485
  92.9960823  75.7473326  51.0082245  93.3712101  77.0414925  51.6977215
  76.7185211  55.1452971  34.4624734  77.2060919  54.3519354  34.2409158
  77.2744226  55.5989838  35.0960135  82.9341125  81.6193962  71.8275213
  83.1639576  82.5427055  71.7230844  82.0182133  81.6305351  72.1054459
  38.6822629  75.3822899  68.1737995  38.2994580  76.2584877  68.1294250
  38.8976026  75.2615499  69.0986109  91.4251041  84.9771404  44.1006756
  90.5810928  84.6505165  44.4124222  92.0141888  84.8695755  44.8474312
  69.5055866  76.1721325  45.2320623  69.0160418  75.5564308  44.6866369
  68.8752604  76.8620253  45.4393578  87.0785141  75.3524590  35.3804803
  87.4659157  74.6234465  35.8649349  86.1543274  75.3412819  35.6294560
 105.9603119  74.7188711  76.7428160 105.5136776  75.4218578  77.2145700
 106.5548420  74.3371153  77.3885918  42.7853823  74.6942472  34.3728471
  42.0674801  74.0649128  34.3036675  43.5751009  74.1739225  34.2250657
  44.4015360  93.2515240  34.4517970  44.9048328  94.0585899  34.5594144
  43.8231421  93.4271240  33.7096024  71.3428688  57.2525358  17.9615104
  71.1171865  58.1816626  17.9165471  70.5009747  56.7991781  17.9177964
 108.4854317  83.5737991  44.2032719 107.7183247  83.4296894  43.6491823
 108.6280346  82.7331543  44.6382523  58.8466311  72.2707319  22.3281741
  58.6209822  72.1275187  21.4090419  59.4547939  71.5621805  22.5387025
  17.4525932  37.9374582   0.7935249  16.8003753  37.4988825   1.3398754
  17.9045537  37.2249777   0.3414929  50.4823351  90.4751205  63.0054188
  50.2977610  90.8359718  62.1382713  50.1070595  91.1111832  63.6143732
  95.8261204  39.1965556  21.0249996  95.1327419  38.8116121  20.4890180
  95.3671074  39.7867274  21.6226888  85.2863693  63.8731146  62.9723978
  85.2880669  63.4262896  62.1258926  85.4043579  63.1721544  63.6134624
  96.9846916  75.7897234  64.1992807  97.2558308  75.4373312  65.0469494
  96.3760853  75.1374531  63.8523340  75.1979351  58.3826494  58.5779810
  75.4741859  58.9413357  57.8514910  75.9530449  58.3634329  59.1659164
  86.8820763  69.6215153  79.3837214  86.5079594  68.8676786  79.8397827
  86.3025951  70.3493786  79.6087742  89.5753479  56.3369703  26.6202092
  90.1924896  55.9859562  27.2622132  88.8164043  56.6041374  27.1387243
  80.0299931  84.4144821  56.1425734  79.5064116  84.4347763  55.3415203
  80.7097340  85.0734043  56.0011721  77.5446892  76.6990662  58.8275433
  78.0237198  77.5251055  58.8940620  77.2092772  76.6882229  57.9310989
  80.6798935  47.0385218  31.1027575  80.3227997  46.8329000  31.9667220
  80.8649445  47.9770279  31.1372447  62.4359512  93.3772469  15.8414114
  62.0684338  94.2590046  15.9020138  63.3821487  93.5072517  15.9049606
  59.6620941  73.3026075  39.7177649  59.2949963  73.8317251  39.0095925
  59.0166330  73.3639574  40.4219294 100.0621796  77.2287512  67.5585508
 100.9422016  77.0922804  67.9095125 100.0403881  76.7062902  66.7568064
  43.8099861  59.5573854   6.8423462  44.4094276  59.0958309   6.2559450
  42.9403448  59.3801975   6.4837945  91.7805862  58.2085848  40.2353096
  92.6983166  58.0773973  40.4736328  91.3790703  57.3466206  40.3450108
  66.3052703   8.9139747  67.7350187  66.6303612   8.8534259  68.6332846
  66.3274432   8.0135345  67.4110699  74.5340824  74.1543484  27.3901701
  75.4357290  73.8381338  27.4473619  74.0752935  73.6988688  28.0960608
 107.5660659  18.9222621  34.4495392 108.4259511  19.1143417  34.8236108
 107.0506526  19.7114467  34.6162176  89.8698616  52.4468660  50.1634693
  89.8524284  53.3972549  50.0508308  90.4424381  52.3054981  50.9173965
  95.4252435   0.1428031  47.9771137  95.0480700   0.8665943  48.4772158
  96.0992432   0.5521774  47.4345446 102.6081944  24.8040199  51.7955923
 103.3882380  25.3560829  51.8503046 102.5587512  24.5499324  50.8740616
  69.4122553  64.9774647  46.3990498  70.3652668  65.0655174  46.3831854
  69.0874338  65.8478785  46.1686134  76.9703388  72.6131535  21.9476771
  77.1689987  73.4979677  22.2540498  76.3658857  72.2631359  22.6021647
  62.7199459  68.5100365  46.0602713  63.2244730  67.7272987  46.2816381
  63.1850290  69.2253971  46.4940739  87.4341106  75.4028893  23.8087749
  86.7010880  75.7562160  24.3128300  87.1205425  74.5559406  23.4916282
  66.0685492  80.5639553  51.5978241  66.4100409  81.4099121  51.3080645
  65.9625101  80.6599331  52.5442791  51.3499022  89.0825558  79.1595650
  50.5619431  88.5536289  79.2844200  51.0250139  89.9249935  78.8418007
  77.0971870  68.5198784  58.2068348  77.6655388  68.6050797  58.9723063
  77.4231052  69.1772938  57.5921679 104.7461987  89.4427395  35.1377892
 104.4598675  89.4553280  34.2245054 105.5928326  88.9966297  35.1172304
  61.1764860  55.5300713  22.2502136  61.2841749  54.5904541  22.3977113
  61.8677950  55.9354639  22.7736473  75.7740355  74.2984486  42.1767521
  75.5236483  74.9477577  41.5195370  75.7362032  74.7719240  43.0077839
  73.1788397 105.2200603  24.0490365  72.8023291 105.7280064  23.3303833
  73.7701654 105.8303642  24.4896078  70.5668592  66.5496969  62.6364803
  70.8485603  66.8220854  63.5097980  70.4907513  65.5973577  62.6955509
 103.7457944  17.8952789  49.6054363 104.0478564  17.2449016  48.9714050
 104.5273257  18.1174373  50.1114845 101.1476756   6.2013435  47.0070791
 101.8819571   6.5157413  47.5345421 101.5410901   5.9603404  46.1684084
  85.2182007  77.2396088  32.8983617  85.8613586  77.0760250  32.2085690
  84.3834591  76.9677353  32.5168896  92.4858475  59.5490265  37.9642415
  92.1001625  59.0376139  38.6755347  92.1789551  60.4425669  38.1179667
  80.0814819  97.9593658  67.6458502  80.5680084  97.4640751  66.9869041
  80.3701878  97.5935078  68.4819269  95.4457855  55.0150728  37.3777771
  95.3496552  55.9354734  37.6224160  96.3508701  54.9409342  37.0752001
  87.5147915  71.1378479  53.9015007  86.5849113  70.9214544  53.9701843
  87.8445053  71.0647678  54.7971439  84.2105103  69.0299034  46.7215395
  84.8250580  68.4453344  46.2778664  84.5429325  69.9090576  46.5403843
  86.5162659  65.8137274   8.6715686  85.7141685  65.3886700   8.9752173
  86.9169235  66.1650658   9.4667190 108.7432861  52.1718597  46.7497730
 108.3816433  52.4765587  47.5820017 108.2415009  52.6422167  46.0840368
 107.1496917  15.2405929  54.4448900 107.8822375  15.8540248  54.3873358
 106.8419028  15.1498031  53.5430861  75.7273293  66.9419003  18.8761461
  76.3001966  66.2929773  19.2847526  76.2287474  67.7567101  18.9061081
  87.9815483  76.2634087  62.0766735  87.1102047  76.5897799  61.8519974
  87.8571415  75.7983494  62.9040051 104.3940544  76.8062258  79.9833822
 103.6691856  76.3608646  80.4220867 105.1325512  76.2032986  80.0689411
  94.5589733 101.0824680   5.8304399  93.7303257 101.5615845   5.8344680
  95.2207088 101.7468452   6.0226464  97.2220898  50.1599264  37.3155665
  97.9771042  50.5970812  36.9217610  96.4886093  50.3876209  36.7442536
 101.7529774  58.3914757  46.8105412 101.4018822  57.6469374  46.3220501
 102.6412201  58.1249619  47.0476675  92.6519394  58.8726234  51.1889124
  93.4620476  58.6937332  50.7114697  92.9415798  59.1291857  52.0644236
  22.1881343  62.8103971  51.2590504  21.9616367  63.4161997  51.9646978
  22.9484417  62.3316717  51.5891790 110.9993745   9.1955280  63.6271381
 110.8294631   8.8315200  62.7583075 111.0344077   8.4323978  64.2038822
  10.8132365  16.1653423  47.8390217  11.0548785  17.0606517  47.6018476
  11.2516215  16.0127162  48.6761332  63.1226635  84.3822098  54.2148304
  63.0500269  84.7636127  55.0897503  63.3666849  83.4698677  54.3707657
  79.7032738  90.0544643  50.9588051  79.7808933  90.0591373  51.9128370
  79.5727682  90.9733582  50.7246208 102.0385742  73.0182886  50.4985905
 101.7540646  72.8335524  51.3936615 101.7012691  72.2851038  49.9839115
  78.1820107  63.7442875  43.2960510  78.4729624  63.0346966  43.8688135
  77.8051662  64.3928432  43.8906956  55.7643700  82.3380375  23.2763839
  55.3177738  81.6165733  23.7193990  55.0564957  82.8934097  22.9497147
  91.0462189 102.8160286  22.0104241  91.2278843 101.9055367  22.2433138
  90.8251190 103.2362938  22.8415203  47.6172495  64.9036551  49.8021650
  47.1965313  64.2715359  49.2193699  47.6618481  64.4571400  50.6476641
  75.6161261  95.1306820  86.3753891  75.8781624  94.5484638  87.0885468
  74.8722839  94.6885014  85.9662342  65.3121901  84.2050457  48.7930298
  64.7908545  83.8278770  49.5016813  65.0949812  85.1371861  48.8058329
 100.5987453  87.4449444  18.1298912 101.3899994  87.9829884  18.1041980
 100.1003551  87.7872181  18.8719726  66.4176273  60.4454565  31.9741774
  66.4246893  59.5746088  32.3714209  66.0833788  60.3021145  31.0887599
  94.9480152  56.3974524  31.7459059  94.5801449  56.5403175  32.6179671
  94.5610237  55.5716991  31.4550400  72.8914547  90.5967617  45.5667973
  72.0995712  90.9444046  45.1565504  72.8338528  90.8821392  46.4786482
  69.7628498  65.6429482  50.5046368  70.0780678  65.0474787  49.8247194
  70.4333973  66.3240814  50.5561638 104.2786407  84.2406368  65.0885153
 104.8502731  84.8052216  64.5682096 104.1496658  84.7196102  65.9071636
 105.3769828   8.2221412  49.5503902 106.2831832   8.4779357  49.3783331
 105.3018952   8.2336902  50.5045700  85.5164337 101.4329338  57.2055721
  85.2773666 102.3581123  57.2614241  84.6808434 100.9671974  57.2389650
  71.2815046  73.9365435  42.1341467  71.4850378  74.6399784  41.5177155
  71.1547041  73.1643057  41.5829611  63.9252472  89.0109348  42.7663279
  63.8949537  89.2803955  43.6843157  64.4352198  88.2009125  42.7711868
 108.7674666  34.9814128   2.5562388 108.7366820  34.3006324   3.2284218
 109.5912743  35.4410552   2.7184168  74.5233822  80.6757736  50.8740234
  74.3205357  81.2224483  51.6331244  73.7815094  80.0746727  50.8066654
  14.9747374   6.2200641  37.7534175  14.3859293   6.6555690  38.3697605
  15.5506136   5.6910133  38.3054185  70.8644390  67.2627497  36.8068171
  70.2643156  67.1483135  37.5436950  70.3122139  67.1661854  36.0309601
  56.2958813  96.3168240  57.1849728  56.4353752  96.0019112  58.0780554
  55.3587532  96.5069485  57.1416807  87.4110508  62.9365158   8.7871575
  86.8506241  63.7003374   8.6503172  88.2986546  63.2933807   8.8193011
  81.2667561  60.9013987  33.4995079  81.6162872  60.6548452  32.6431942
  81.3861847  60.1209593  34.0406919 106.5437889  90.2240753  79.4936562
 105.8255196  89.8108482  79.0145350 107.1365738  89.5029736  79.7054243
  56.7944288  75.0334120  64.5390224  57.3249102  75.0801420  65.3344059
  56.1678505  75.7517338  64.6264744  61.7444134  69.3108416  43.5244274
  61.8497705  69.0090370  44.4266701  61.6431808  68.5077524  43.0135107
  74.7566128  55.3538704  30.9767246  74.7850752  55.0484324  30.0700140
  75.3599215  56.0966969  30.9982777  64.7198439  83.3169746  38.1586504
  64.8900938  82.5483894  38.7031889  63.7660503  83.3527374  38.0863214
  87.9016590  85.6079960  39.9893284  88.1188011  85.3236771  40.8771610
  87.3058033  86.3467693  40.1134205  70.2899265  81.9785118  32.9556727
  69.8518229  81.8987846  32.1083593  69.6374989  82.3861599  33.5252285
  83.4069061  72.1570539  57.7126026  83.1134129  73.0599117  57.5903797
  82.6251411  71.6886139  58.0052471  17.0449641   5.6889247  63.7781572
  17.1730521   4.9506759  63.1824923  16.7850878   6.4134597  63.2091808
  60.1031303  89.3048763  56.6643143  59.7913694  88.8208580  57.4290085
  59.3671083  89.8657131  56.4194250  75.7275581  68.3730793  12.0358682
  76.5799522  68.6347866  12.3839581  75.1068878  68.5957241  12.7297211
 108.0152130  64.5342875  46.1483192 108.4004879  64.5787144  47.0234346
 107.1812153  64.9968910  46.2300253  64.6191549  70.6882620  33.5661912
  63.7398815  70.5944014  33.1997252  64.6089315  71.5427351  33.9974713
  69.3399239  87.0206261  43.1511450  69.7973776  87.6951218  42.6491213
  68.9548492  87.4918270  43.8900089  63.1599522  63.9261389  47.2229052
  62.7377224  63.4310961  46.5208483  63.8960600  64.3654299  46.7969942
  36.1893106  68.1225586  53.8941240  35.8905458  67.2619581  54.1879654
  36.5713835  68.5229683  54.6750975  68.1556559  94.2695618  56.8995428
  67.6958990  93.7962246  57.5929451  67.5766087  95.0006580  56.6840506
  60.7200146  79.0889263  32.5699043  60.6434870  79.2319632  33.5132575
  60.6778145  79.9666548  32.1903706  94.3273450  10.4280471  22.9630828
  93.8681746  10.9503364  23.6208153  93.6454583  10.1714134  22.3422742
  86.8573189  94.5388126  45.3794527  87.6138687  94.5006180  45.9646034
  87.2195435  94.8141098  44.5372963  58.0358315  77.0706844  46.4334202
  58.3584976  77.0148277  47.3328638  57.1551180  76.6976690  46.4713097
  84.1440678  77.4149132  27.9703665  83.8790035  78.1961823  28.4557390
  83.4317398  76.7915106  28.1124640  35.5236673  87.1199036  61.9603300
  34.8038411  86.4961243  61.8655872  35.1841331  87.7889729  62.5547266
 101.7027283  98.8490677  26.3497543 102.6406956  98.8299751  26.1598158
 101.3084126  99.2402840  25.5702043  64.1217422  93.0957508  31.0017467
  65.0072479  92.9719925  30.6599951  64.2205381  93.7530327  31.6905546
  61.0960197  75.0514412  41.4175844  60.7244492  74.2131376  41.1429691
  61.8792105  75.1548433  40.8770752 100.0218105  80.8586693  52.0660067
  99.7910500  81.7668629  52.2613668  99.6726513  80.7064056  51.1878681
  95.5013180  47.5289536  74.0402651  95.4609394  47.3699188  73.0972338
  96.2686539  48.0893278  74.1560221  83.6872578  82.5260448  13.9428723
  83.7805843  82.0738506  13.1043947  82.8413391  82.2319412  14.2807460
  90.8469677  56.2812519  44.5824957  91.5923977  56.5263605  45.1306629
  90.3334999  55.6860352  45.1286602 109.1004467  76.0774803  25.5481815
 109.1227245  76.0594749  24.5914102 109.9000168  76.5407991  25.7977057
  59.0636253  85.6982327  69.8197365  59.7652912  85.5113411  69.1960573
  58.7539673  86.5709496  69.5774317  88.3657837  79.4960499  26.9754767
  88.4038544  80.2339840  26.3670063  89.2799950  79.2417336  27.1010447
  71.9915104  83.0015945  24.1431761  71.5995026  83.4796143  24.8739696
  72.0903778  82.1066093  24.4679141  69.0172291  59.4431448  34.7453332
  69.4024229  60.3187513  34.7111750  69.6930647  58.8998127  35.1506352
 101.7191792  73.0808067  39.1880655 102.2936153  72.3634911  38.9202714
 102.2169590  73.8736200  38.9883137  83.3479595  86.0668468  30.3902745
  83.5654449  85.3543377  29.7892237  84.1422272  86.5997696  30.4273534
  86.7943192  85.9020329  61.0149574  86.0061169  85.5286789  60.6205463
  87.3990250  86.0142899  60.2815008  63.3896112  80.6466770  25.0488973
  64.3334150  80.5845165  24.9019122  63.1314802  79.7667456  25.3233480
  77.6695490 101.3879967  45.0979519  77.5117254 102.3201847  44.9484348
  77.2081995 100.9492970  44.3831539  84.4613552  40.1808786  29.1516638
  83.9161205  39.5399809  29.6079540  85.2721786  39.7106242  28.9575863
  89.5474911  63.6680937  48.9059687  90.4730797  63.8051081  48.7040997
  89.5433140  63.3565664  49.8110485  58.1177139  64.0858650  25.0927305
  57.7717257  63.5248232  24.3986416  57.8922033  64.9743938  24.8172331
  73.9683294  82.6853466  46.6094398  73.3710003  82.1262455  46.1126137
  74.4005489  82.0897198  47.2215271  75.9408379  82.8887558  62.7931833
  76.6558552  82.3690701  63.1604910  75.1460981  82.4367714  63.0766010
  88.1748009  57.0360947  49.9549437  88.3582973  57.9511595  49.7422981
  88.5968208  56.8979883  50.8029175  36.5477681  85.8986473   1.3903508
  35.6708908  86.1032677   1.0656260  37.1145582  85.9920406   0.6246758
  90.3371239  81.2909508  18.0988717  90.2183247  81.3460255  19.0470719
  89.5839977  81.7569065  17.7356637   6.4236166   9.1523647  25.6286573
   6.3233569   8.6163234  26.4153194   7.0007231   9.8670387  25.8977652
  42.5285864  69.5197344  37.2933030  42.9978275  69.6093273  36.4638352
  42.5799036  68.5860634  37.4978805  69.8942757 106.5294456  68.9730167
  69.3468714 107.2913361  69.1630220  69.3030071 105.7818317  69.0607643
  70.1676702  83.2721806  55.9127665  69.6688223  82.6593018  55.3726196
  70.1191664  82.9070759  56.7962694 110.9072399  68.2236576  81.7166996
 111.3321018  68.7888193  81.0714722 111.2617397  68.5118151  82.5578403
  73.9210320  79.9907112  42.4726963  74.6936321  80.1804352  41.9404078
  73.7503099  80.8050728  42.9458761  90.8129978  62.6852942  14.2654610
  90.7243156  63.6286640  14.4011664  91.7123508  62.4890614  14.5279253
  74.4541073  85.4099751  52.9551554  74.3606186  85.4875088  53.9046192
  73.6431932  85.7776928  52.6038218  67.3342657  72.7306890  51.3171673
  66.8784618  72.0225191  51.7721033  68.2334328  72.6844501  51.6421270
 111.0404873  92.1273136  33.5708594 110.2434540  92.2061443  33.0466843
 110.7299995  91.8900967  34.4446754  88.6066914  45.6078339  24.1064095
  89.5434189  45.4784870  23.9579296  88.2406521  44.7234011  24.1116691
  64.0014172  91.7077255  47.2284126  64.7467852  91.7755604  46.6317081
  63.7885666  92.6143169  47.4498034   8.1101420   2.5735759  20.8308792
   8.7281611   1.8426704  20.8391500   7.7090170   2.5382423  19.9625003
  96.6695118  80.0947285  58.8761854  96.8939114  79.2345715  58.5212135
  96.2305832  79.9045944  59.7052956  62.5982714  72.3441648  40.3834438
  62.9962206  71.4921618  40.5622053  62.7689981  72.4980307  39.4542432
  67.9456711  48.4146500  27.7796960  68.8880348  48.2478952  27.7991390
  67.8526163  49.3035650  28.1223345  88.5116673  83.3735180  61.7981148
  87.7011871  83.8665676  61.6706133  88.5738659  82.8111172  61.0260582
  79.3454123  92.4159336  39.3771625  80.2219296  92.0312977  39.3738961
  79.4322205  93.2052612  39.9116421  56.1547995  90.9807968  53.2052469
  56.1261463  90.7250977  52.2832727  55.4007101  91.5597153  53.3167887
  53.4622526  64.0753365   7.7131212  53.4168720  64.9874163   7.9999685
  52.5542259  63.7730312   7.7314717 100.2162266  69.4318819  37.7837825
  99.7738743  69.0151262  38.5232902 100.1838589  68.7777185  37.0857430
  87.3254967  78.0293655  56.7167377  87.0226479  77.2587919  57.1970797
  87.7037048  77.6762581  55.9114408  75.6573296  74.9206495  24.6985984
  76.4619637  75.1661921  24.2419767  75.8157396  75.1640081  25.6106901
 105.3964330   7.7145862  30.6555653 106.3301564   7.5504112  30.5235362
 104.9588204   7.0559310  30.1162124  66.2427187  57.1205521  47.7528477
  66.7605448  57.9145336  47.8858328  66.8590784  56.4042711  47.9054117
  85.6893730  54.4682312  69.7316980  86.3593102  55.1447916  69.8300791
  86.0258675  53.7236595  70.2303123  59.8554373  62.9870176  28.7965918
  59.4379663  63.3095551  29.5952916  60.7718134  62.8573751  29.0408802
  63.6252737  75.4818869  50.1748228  64.3849707  74.9138165  50.0467873
  62.8881311  74.8785162  50.2686262  77.8735924  77.9336691  54.2778921
  77.8205538  77.8075647  55.2252674  77.7618790  77.0559120  53.9128017
  69.1967869  98.0846691  48.4818459  69.3676615  98.8959026  48.0033779
  70.0647974  97.7163029  48.6464405  66.0275126  80.1916504  35.1724410
  66.2422514  81.0806751  35.4548526  65.1344061  80.0498104  35.4862547
  85.8649445  78.6763239  12.7501655  85.7426071  79.0393066  13.6273801
  86.5330410  77.9999971  12.8618526  77.8388548  59.3468237   5.8197129
  78.7044191  58.9491272   5.7255620  78.0179501  60.2635098   6.0291058
  46.2388897  87.5071144  11.6935968  45.2961540  87.3985958  11.8189192
  46.5358496  86.6590405  11.3637376 100.1396895   2.0063114  22.7429008
 100.0648452   1.5703773  21.8940258  99.7207452   2.8571033  22.6129937
  99.2280960  85.9735870  36.4067221  98.3703804  85.8286953  36.0072756
  99.0543461  85.9897900  37.3478794  83.7719536  53.2989120  30.3198195
  83.1261826  52.8699589  29.7583842  84.6169567  52.9947615  29.9886107
  61.1446142  84.7843456  68.0168867  61.1763239  83.8386154  67.8726196
  61.4655876  85.1624107  67.1981859  98.7783813  62.9864645  29.2394471
  98.5136890  63.2417917  28.3557200  98.2787704  63.5649204  29.8156452
  84.5135117  75.6738520  40.2972698  83.5692406  75.5503273  40.3937483
  84.7795677  75.0040197  39.6673727  83.7692738  85.6082249  87.8092957
  84.5448112  85.6595421  87.2506046  83.1793213  85.0135612  87.3460770
  93.5722542  97.2519493  31.1086845  93.1161880  97.5954056  30.3403878
  93.1311321  96.4240074  31.2988138 107.3342133  27.7569485   0.5859873
 107.7679253  28.2488799  -0.1112464 106.5882397  27.3389459   0.1558519
  81.7408085  91.7877865  43.4736681  81.6020775  92.7097321  43.6904573
  82.6730442  91.7285156  43.2647419  30.6864833  61.0617845  90.1771570
  30.6932210  60.1532094  89.8760230  29.7695827  61.3288228  90.1122716
  71.1996412  94.7491360  51.5010166  71.1681652  94.1339779  50.7683468
  71.4379549  94.2107582  52.2557259  89.7046852  64.2033386   5.5153000
  89.7145462  63.3576059   5.9634823  88.8626766  64.5910454   5.7539034
  28.8494014  20.3514593  89.9381808  29.6248149  19.8382061  89.7111783
  28.1717538  20.0396650  89.3383396  94.9348450 105.4491043  35.6251931
  95.8129883 105.8014488  35.4804540  94.3689346 106.2205696  35.6537986
   7.8868391   0.2107047  66.3675547   8.3463576   0.9077167  65.8993149
   8.4319022   0.0381851  67.1352673  85.6046677  69.8320436  72.2550440
  85.9880257  70.6392908  72.5980043  86.3428783  69.2265844  72.1865273
 100.5058289 101.6024303  27.4923801 100.5213165 102.4861622  27.1249366
 101.3156033 101.1988831  27.1798825  99.7104931  81.7821789  35.3861523
  99.9643421  81.6073799  34.4799304 100.1401329  81.0927582  35.8924603
  52.6125336  86.9780922  80.9850311  52.3758411  87.7159882  80.4231453
  53.4218359  87.2544289  81.4150333  81.6569614  76.5432167  11.9371390
  81.4172840  77.4343348  11.6827798  81.4962673  76.5119171  12.8802347
  72.9457092  90.5866051  26.7180443  72.0966625  90.2396297  26.9918299
  73.4789991  89.8097038  26.5499067  81.8010330  99.6708012  35.0740457
  81.3423920 100.1370335  34.3751144  81.1190319  99.4680691  35.7143617
  81.1814690  71.3333082  59.1328096  80.7089996  70.6550503  58.6501312
  81.4401054  70.9089708  59.9509001  69.0023327  62.7631903  40.1707458
  69.3797970  63.5262775  40.6082964  69.6078110  62.5743151  39.4538426
  31.8581843  55.6022787  63.2458878  31.4217758  55.5839634  64.0976191
  31.1477876  55.7200718  62.6152611  99.2124177  20.0397396  52.7774334
  98.8501931  19.8784923  53.6486530  99.3851996  19.1668891  52.4245739
  83.9638138  80.7870007  21.0975027  83.9088535  81.2920666  21.9087481
  84.4200325  79.9831295  21.3462806  80.4197884  94.7236824  46.0999823
  79.9836779  95.5309200  45.8272219  80.9635448  94.4802856  45.3507662
 107.5350238   4.9830532  74.2327833 106.7581893   5.5145740  74.4066954
 107.9740907   5.4301834  73.5092306   0.5647328   5.1042365  30.0799441
   1.1206915   4.3273544  30.1398778   1.0113671   5.7602500  30.6151056
  29.7249129   5.1689720  61.5191412  29.4027808   4.2738819  61.4128876
  29.5429900   5.5902862  60.6791258  76.8886089  96.7178249  62.0472956
  76.4430237  97.5187016  62.3234749  77.6418114  97.0246792  61.5425587
  89.9135017  91.5902805  71.0837698  89.4374084  92.3426914  71.4351177
  89.3114567  90.8540440  71.1920929  62.7462721  99.2319965  55.4339218
  63.2567310  99.0987968  54.6352196  61.8981981  99.5513630  55.1256895
  93.9425422  10.8235549  32.1314597  93.1079055  11.0966110  32.5123167
  94.5100022  10.6659889  32.8860426 102.0747566  92.3858929  20.7775736
 102.7460766  91.9082355  20.2903342 102.0111942  93.2308006  20.3322387
  23.9373019  18.7837886  30.6547403  23.1842997  19.1621684  30.2008128
  24.5218089  19.5259761  30.8088422  64.9989033  99.6597385  42.7123260
  65.4023552  99.4128036  43.5444784  64.6100092 100.5181313  42.8800964
  57.7805853  84.8341465  18.3957076  57.3405027  85.5921078  18.7804759
  57.6973248  84.1474628  19.0573490   1.0790588 105.1152897  60.1093674
   1.0342552 104.9144173  61.0441828   1.0603668 106.0714340  60.0686789
   2.0382073   6.7370605  47.6134586   1.4005854   7.4493789  47.6611090
   1.5466502   5.9993553  47.2523355  87.7480793  95.0895691  39.2027879
  87.0757961  95.7154274  39.4721699  88.1558895  95.4914856  38.4357238
  57.7741909  77.3945093  63.5426140  57.3933411  77.0589542  62.7310801
  58.0829954  76.6141081  64.0028811  25.4691985   7.9666995  47.6656055
  25.8257201   8.7412738  47.2306776  25.2909758   7.3527336  46.9532013
 111.7715455   5.4842662  13.7041843 112.5411177   5.1156997  14.1379476
 111.1636067   4.7487163  13.6292529  69.2102289 103.9846897  61.0404062
  69.2534876 103.3170033  60.3558969  68.7510633 104.7180271  60.6309986
  21.0376074   0.5125141  30.9507871  20.0851729   0.4180431  30.9375930
  21.3671496  -0.3859425  30.9711480  12.5874331   0.7075977  41.3419676
  12.9703524   1.4719295  41.7725468  12.9494097   0.7253932  40.4560280
  79.1944408  76.3531733  51.0490942  79.2081165  76.6585732  50.1420259
  80.1172733  76.2982368  51.2972593  79.0346479  60.3555393  20.1151919
  79.1883421  60.0466681  19.2223251  79.1907740  61.2989521  20.0724816
 107.7756405  93.4734821  63.6264849 107.0344830  93.7576866  64.1614056
 108.1822586  94.2873287  63.3289003  92.2867870  81.4297104  50.9958601
  92.9302025  81.1972046  51.6653347  92.3941040  82.3735523  50.8780622
  84.0881634  57.0321321  89.9614525  84.4719315  56.1692142  89.8054981
  84.5971203  57.3929644  90.6873989  67.5702763  93.6711311  59.5641708
  66.9300413  93.9161491  60.2322245  67.8460693  92.7878952  59.8092508
  34.2937090  19.3002891  28.3602214  34.4722846  18.4614276  28.7852669
  34.6218684  19.1911983  27.4676704  65.5302763  60.3127527  28.8879085
  65.7572603  59.5199871  29.3739486  65.4080820  60.0143909  27.9866409
  91.7333126  53.9974403  65.7350779  92.1119022  54.2061710  64.8810720
  91.4773369  53.0777454  65.6652689  93.6194324 103.5172749  50.4449415
  93.9108086 102.7692413  49.9236155  92.7538300 103.2634354  50.7651329
  63.6700726  83.2355022  50.7386732  63.6949492  82.4324703  51.2590075
  63.8106441  83.9372253  51.3743258   1.4858773   3.1229591  49.1707563
   2.2878077   3.6284542  49.0380287   1.2461522   3.2891082  50.0824356
  86.8507671  92.6234627  30.0583243  86.3590908  92.9895210  30.7935023
  87.7492619  92.9221916  30.1986408   6.5800002   4.8188781  34.8777652
   5.7055571   4.5779895  34.5719218   6.4514639   5.0791549  35.7898855
 102.5892067  64.5993662  41.2164879 102.9968452  64.2743969  42.0192671
 103.3238792  64.8851538  40.6735277  67.4720669  81.6965008  61.4430475
  67.2482634  81.6692829  62.3733187  67.3518944  82.6130295  61.1945105
  43.4168913   1.5175628  31.2558889  43.4366991   0.6774425  31.7141938
  42.6055148   1.9316863  31.5498471  80.7893181  88.7038231  35.7853866
  81.5962791  89.1829967  35.5971313  80.9081650  88.3753490  36.6765738
 110.2480030  84.1012192  69.8503780 110.4433346  85.0372314  69.8946476
 110.9914684  83.7233543  69.3805742  80.2542686  68.8827229  36.6609120
  79.4101524  68.7502766  37.0923758  80.0697041  68.7575531  35.7300520
   9.1439059   6.6597938  78.3542871   9.9143317   6.7910003  78.9069653
   9.5002177   6.5057849  77.4793291  20.5931475  11.8267440  59.5669079
  20.8281329  12.7330875  59.7657824  21.3988497  11.4401435  59.2239761
   9.8469927  31.4109420  38.0290222  10.6185534  31.6278076  37.5056744
   9.1521170  31.9639015  37.6717901  71.2818956  53.6133957  24.2392278
  71.2908888  53.1807327  23.3854413  70.3567266  53.7924719  24.4072533
  67.6890087  84.0471649  59.9513578  67.3492956  83.4113693  59.3215990
  68.6402655  83.9854431  59.8645735 104.1839123 101.7343140  70.7866287
 103.9114571 101.9058323  71.6880608 104.6957970 102.5047588  70.5404139
  11.0394766   6.1643314  41.3776684  10.1955512   5.7656574  41.5900087
  11.2294772   6.7341422  42.1229553   8.4293033  70.5666161  80.0441265
   9.2921783  70.9692192  80.1419926   8.1004478  70.4843855  80.9392929
 113.2131434  20.3003978  65.2040148 112.4080993  20.5264663  64.7381544
 113.1378508  19.3607616  65.3702688   7.8018095  18.0258846  54.4899940
   7.3728278  17.8258228  55.3219652   7.1612265  17.7760505  53.8240576
  68.5075855  57.9517984  43.2282877  68.7041044  57.1903944  42.6825094
  67.8579521  57.6352787  43.8560009  86.2679291  63.6587667  57.8122139
  85.4462814  63.4950686  57.3492622  86.1324787  64.4987154  58.2508135
  14.7053912  28.9877891  10.3030658  15.3794005  29.6662712  10.3432131
  15.1880267  28.1811046  10.1226342  12.4517825  12.4845600  36.4691544
  12.3572257  11.7621326  35.8483601  13.1588271  13.0194473  36.1083078
  71.7388248  80.8385086  40.3689146  72.6933146  80.7686043  40.3516245
  71.5694761  81.7683506  40.5204010  77.8456736 101.6050720  41.2611198
  77.8287363 100.6573105  41.3940763  77.1919155 101.7631149  40.5800486
   2.0834301  79.3381637  72.1162522   2.6643990  78.8379210  71.5431345
   2.3696516  80.2458447  72.0141590 111.0741187  14.0340804  50.6111193
 111.9644786  14.1518211  50.2800083 110.5161000  14.4384670  49.9467993
   6.1654665  12.5920963  41.1365032   6.2772944  12.0486354  40.3565121
   7.0543196  12.7227973  41.4667988  86.6031456  65.5669928  41.8486023
  86.0563278  65.5183268  41.0644770  87.0701599  66.3982105  41.7637157
  77.2155285  85.9215927  52.8065205  76.3520813  85.5202770  52.7083445
  77.1501970  86.7497540  52.3310089  60.6359005  40.8147001  28.5332513
  61.0058403  41.3150883  27.8059340  59.7878695  41.2260628  28.7001419
 111.3324356 106.5553474   4.9804950 111.2976742 106.9482994   5.8526260
 110.4264259 106.3110256   4.7915903  80.8874893  87.1578407  42.2951460
  80.6077003  86.8218613  41.4436388  80.0838757  87.1947384  42.8138781
  25.8544447   1.7815780  32.7017546  26.3939574   1.8395519  33.4902978
  24.9583914   1.9047927  33.0150223  35.1529982   1.6464805  32.7674007
  34.6660235   2.0634460  32.0566082  36.0727026   1.7817592  32.5391912
  29.5483305   4.7325611  48.8740730  30.4307177   4.4805335  48.6018515
  29.1253188   5.0308704  48.0689049  73.6946583  80.1391029  54.5516539
  74.0980816  80.9579372  54.2635727  72.7646017  80.2474308  54.3529177
  86.6916370  94.9826050  11.0181510  85.9130287  94.8669529  10.4735267
  86.5674400  94.3734837  11.7460084 101.5101529   0.2724838  18.0056500
 102.0141364  -0.3574467  17.4904597 101.7617083   1.1260795  17.6530373
   9.0002967  76.2776279  63.8406134   8.6173011  75.9755468  64.6641970
   9.1497375  77.2134924  63.9750004   6.6063025  32.9563331  64.8845387
   7.3879912  32.8937816  64.3356466   6.5918448  32.1346282  65.3752661
   4.3521358  87.7958775  38.8992715   4.5905544  87.1073437  39.5200109
   5.0436641  87.7720165  38.2378697  95.4002094  81.8875790  32.2902107
  96.0310650  82.5931740  32.4329901  94.5460510  82.3008537  32.4161386
  88.9741993  73.5410357  56.0347033  88.2707214  72.8958845  56.1063480
  89.7741985  73.0181599  55.9814978 111.7743064  40.3320789  23.3315349
 111.6581536  39.9958610  22.4428821 112.7199174  40.3026008  23.4770775
  71.3508701  69.2160273  32.7270508  71.3765764  69.8344612  33.4571981
  72.1126890  69.4431448  32.1938705  48.0134439  82.3570347  43.2841063
  47.5288439  82.9578304  43.8501930  48.8667631  82.2645187  43.7077951
  49.9674225  88.1058216  16.3957798  50.5673742  87.3615170  16.4437389
  49.9113750  88.3084965  15.4619634  94.6343327  79.3628073  66.8259716
  94.0217590  79.0452623  66.1625338  94.2315388  80.1644135  67.1597719
   8.1354430  15.7244205  27.5281858   8.9559081  15.2500438  27.3939180
   7.7885630  15.8574390  26.6460228 106.5167809  77.4747944  19.6827304
 105.5879688  77.2490406  19.7336233 106.6778183  78.0038691  20.4639959
  84.6995544  65.7921934  55.2010727  84.5069599  66.7165136  55.3584576
  83.9666653  65.3234720  55.6003284  58.6973000  79.7258234  29.8702574
  58.3831167  79.9246740  30.7522869  57.9968786  80.0288963  29.2925119
 108.0266763  18.3214759   8.1856060 107.1462537  18.5425949   8.4892392
 107.8948403  17.5930786   7.5787312  99.7753334  78.9454889  57.1567488
 100.3952026  79.1542625  57.8556108 100.2672672  78.3801174  56.5612698
  84.9695683  98.7178516  42.8589439  84.5986271  98.0141354  43.3913183
  85.4889393  99.2353916  43.4742880  74.0957785  76.7873049  47.9345465
  74.2018223  76.4475107  48.8230991  74.9769068  76.7614460  47.5614834
   4.4773342  75.3077984  32.1276832   3.7375690  74.7389603  31.9146037
   4.0776397  76.0825777  32.5228930  76.4880419  64.3785858  33.0403805
  75.8071375  64.8149014  32.5282931  76.4879751  64.8383760  33.8799214
  18.8992693  14.8498439  80.0539970  18.7071707  15.7534217  79.8032331
  18.2495406  14.6445560  80.7262611 104.2256595   3.5205745  60.5888033
 103.8319398   2.8933715  61.1952925 103.9105416   4.3733978  60.8881855
  70.4626608  80.4337692  48.5608149  71.3217068  80.1102066  48.2895565
  70.1517200  79.7863293  49.1935635  84.6685505  93.2046223  32.1670389
  84.5757961  92.3014545  32.4702382  84.6121883  93.7317944  32.9639959
  89.0149976  15.1150703  16.2371016  88.0809403  14.9120521  16.2876070
  89.0561772  15.9306716  15.7377684 104.6138763  75.5313301  34.2177916
 105.1904583  74.7685289  34.1739941 103.8763905  75.3070211  33.6503196
 103.5617638  71.8865347  32.5062537 104.2374611  71.8780994  31.8283153
 102.7591991  72.1235657  32.0415711  69.4258070  68.1543112  30.7813454
  69.1851234  67.2410250  30.9369516  70.0687218  68.3519459  31.4623976
 105.6668854  87.7623177  66.9608545 105.2792358  88.6311054  66.8551683
 105.4930687  87.5318909  67.8735018  71.3491344 101.4473534  30.3532338
  70.5082941 101.1363029  30.0178671  71.8722725 100.6531525  30.4618430
  77.5226974  97.9625034  67.4026680  78.3786678  98.3282757  67.6257372
  76.9077969  98.6791515  67.5593376  72.6020432  70.4723024  11.2706208
  72.6209211  71.0734177  12.0152903  73.5076809  70.4448843  10.9619236
  77.9548264  96.0957336  23.8917685  78.2236242  96.5433121  24.6940446
  78.1131315  95.1687145  24.0701342  64.9565220  85.8669567  39.4421291
  64.5077705  85.5903149  40.2410841  64.9316978  85.0966167  38.8745046
  71.2756062  84.7730637  26.2506461  70.6182861  85.1383877  26.8428469
  71.9699812  85.4315281  26.2280512  92.1157742  55.6621075  54.9470663
  92.1063805  55.8478880  54.0081120  92.9807186  55.2849770  55.1079559
 101.3133574  21.6851234  71.0944319 101.9766188  22.3550319  70.9284782
 101.6900206  21.1413574  71.7862892  76.8341637  61.6545200  41.8484020
  77.4521351  61.1189556  42.3459101  77.2545815  62.5123882  41.7888594
 109.7590638  -0.1927090  73.3896685 110.3539897   0.4848766  73.7108850
 108.9460088  -0.0463868  73.8731575  45.2356100  79.1926622  60.1185274
  45.0213861  79.1992188  59.1856289  45.9555197  78.5664177  60.1945639
  36.3511469  26.9103145   5.6997448  35.5534937  27.3867225   5.9300119
  37.0062067  27.2246646   6.3228989  74.3771124  77.7769136  52.9910278
  74.3381357  78.2291842  52.1483135  74.4929409  78.4770012  53.6334419
  81.1714172  78.3086729  45.4084587  80.3981495  78.8722372  45.4346418
  81.8875694  78.8957644  45.1662302 107.7988052  88.9630795  44.5801878
 108.5922718  88.9055538  44.0478992 107.8277493  88.1857967  45.1380587
 111.2710476  87.2819519  47.3280907 110.9274769  86.5480232  46.8186569
 110.5165863  87.8561306  47.4597549  93.8085938 103.1098080  62.2131252
  94.6479797 103.2120991  61.7645693  93.3321476 103.9164162  62.0166063
   8.8808204  92.8140450  64.2397261   8.7735130  93.4191704  64.9735737
   8.1613494  92.1901798  64.3365479  62.3860455 103.8880062  15.4379928
  62.2789669 103.5033226  16.3079274  61.6728210 104.5224667  15.3672171
  77.8378010 104.7502613  38.7336421  78.0618954 104.9866295  37.8335619
  76.9424391 105.0684643  38.8489962  10.3612425  17.7689933  55.3350306
   9.4796660  17.9163741  54.9924850  10.4849913  16.8215274  55.2781582
   2.9330542   6.8435954  30.9554362   2.9337313   7.3664569  30.1536608
   3.5625746   6.1429595  30.7850027 110.8347178  23.9754867  31.4740634
 110.2882338  23.3119392  31.8951225 111.5547849  24.1178321  32.0884514
 103.4839869   0.6280803  47.2156715 103.1311990  -0.2470017  47.3769522
 102.7726460   1.2213325  47.4570656  11.5526106  29.5480918  21.9655704
  11.3447764  30.2310466  22.6032305  12.3675730  29.8410701  21.5578580
  66.2449074  76.8811750  61.7936850  66.8533802  76.1724615  61.5845966
  66.5941572  77.6416206  61.3289452 104.6572877   8.8298034  23.6759996
 105.0551225   8.8452720  22.8055263 104.0284825   9.5514011  23.6648154
  12.1655753   3.6702251  68.1159592  11.8434718   4.5352458  68.3693600
  12.2739603   3.2029056  68.9442682  60.8246946  91.5399456  39.3350148
  61.4768457  91.0526466  39.8384809  60.3935337  90.8766460  38.7961531
  91.1352539  93.9145470  39.3403149  90.8562469  94.2479134  38.4875250
  91.2742138  92.9782867  39.1976857  86.6302395  71.1420107  34.0197515
  86.5901661  71.9939375  33.5851908  86.2915325  70.5257273  33.3703613
  94.2249489 104.0424728  32.2447681  93.9175320 104.8900986  31.9234157
  94.3616199 103.5215569  31.4534402  37.7208521  11.4947223  67.8460455
  38.4650900  10.8937072  67.8794575  38.1134131  12.3656368  67.9062843
 100.3096438   1.9619655  30.1232791  99.5062352   2.4589443  30.2774620
 100.2806474   1.7427062  29.1919804  85.8729553 100.5039120  40.9478951
  85.2550507  99.8619747  41.2977028  86.6600800 100.3940964  41.4813662
  99.2265701  61.4461517  18.6970949  98.7855816  60.6051445  18.5768282
  99.8237705  61.5121651  17.9519606  94.5767689  98.2646179  43.1866980
  95.0336647  99.0114498  43.5736370  95.1751423  97.9402828  42.5136471
  45.6980657  56.7914217  84.0472174  44.9960755  57.4419324  84.0310574
  45.5299043  56.2385576  83.2841319  83.5683632  64.5304966  48.3198643
  84.2582798  64.2712116  47.7091169  82.8942490  64.9247599  47.7663660
  92.5796604  73.2997227  51.2618780  93.2679939  73.1827021  51.9166613
  92.9249382  72.8802347  50.4738092  89.8807335 106.5520859  23.6242318
  90.6087112 105.9732819  23.3978200  90.0103855 106.7482853  24.5520949
  93.0182076  77.9609966  65.0285530  92.7272987  77.3589945  65.7135344
  92.2463226  78.4921694  64.8328686  83.0437851  90.3338432  34.7972727
  83.9847374  90.4014111  34.9593782  82.7109432  91.2188816  34.9461246
 101.5828133  66.0884809  26.2035728 101.7233753  66.5422583  25.3725743
 101.9824600  65.2279377  26.0771465  45.0245955  23.4886646  27.7158046
  44.3940546  23.1470298  27.0818210  45.6996920  23.9062976  27.1809530
   3.0996276  55.2939987  45.2898836   3.0406715  56.0850716  44.7542000
   3.6536171  55.5458117  46.0287476 102.8405285  69.8937654  42.4186373
 102.0434475  70.0812483  42.9143667 103.0552864  70.7214451  41.9884586
  19.8305800   8.2065200  37.1826339  19.4488242   7.8300952  37.9756021
  19.4941523   7.6602554  36.4722443  99.5783329  83.0881882  41.8804884
  99.9836159  83.8751984  42.2446251  99.3005466  82.5856113  42.6463032
  15.3658488   8.0595016  52.5414991  15.0824358   8.9607524  52.3876810
  16.3219359   8.1032752  52.5268745  24.5291808  18.6486244  22.1718669
  24.7621252  17.8018760  22.5526309  23.9020350  18.4360408  21.4806890
  23.2215121   8.7637901  49.7384357  23.3160021   8.2826518  48.9163637
  22.8424075   9.6043968  49.4817495  26.3354495  22.2639369  17.2948503
  26.5190699  23.1996631  17.3781288  26.5045168  22.0677661  16.3733494
  73.8891745  21.8503570  59.0821123  73.5717107  21.2099456  59.7187567
  74.7662307  21.5441703  58.8513470  85.2575351  13.7405967  37.1119571
  84.5011569  14.3057441  37.2692275  85.2049971  13.0740165  37.7968907
  74.4136524  81.3859081  27.5530958  74.5239639  81.0771751  28.4523988
  73.6406040  81.9494057  27.5864434  80.8318424  89.5258427  44.9041796
  80.3138828  90.0739956  45.4936504  80.7650471  89.9593925  44.0534115
  91.8530273  75.8834362  57.9437685  91.6853333  74.9410582  57.9491711
  92.7868652  75.9616613  58.1388664  30.8460429   4.7791004  70.4446602
  31.0052206   5.4792785  69.8116922  30.1972868   4.2166709  70.0215578
  77.5834370 101.7905998  59.5524693  78.4114456 102.1463966  59.8750162
  77.7396059 101.6257954  58.6225843  53.0977440 103.8948727  33.1490374
  53.3972549 103.7930393  34.0524507  53.7849188 103.4877205  32.6215482
  68.0577421  53.9755869  31.7929816  67.2159672  54.0951824  31.3532710
  68.4470654  54.8499250  31.8068600  19.7729113   9.4203472  78.4133577
  19.6060851  10.0075244  79.1506672  19.9112036   8.5631847  78.8163280
  85.8085155  89.3945694  49.3743896  86.5503120  88.7956333  49.4594622
  85.0891972  88.9501858  49.8231030  23.8552524  77.4019957  42.4539661
  24.0960647  76.4838648  42.5775623  23.9376499  77.5464201  41.5113211
  59.3237543  97.6808262  62.8943443  60.0515747  97.1549797  62.5626993
  59.4889927  97.7526093  63.8344383 111.0768414  78.6405468  10.3074503
 110.6189823  78.0147362  10.8686543 111.5458775  79.2103529  10.9170055
  72.2867870  77.4855089  59.4586706  73.1680393  77.1138716  59.4197798
  71.7180490  76.7355442  59.6328068  88.0774498  77.6929283  38.2012606
  88.0483913  77.8264046  37.2538567  87.9386425  78.5651159  38.5703850
  78.4609890  89.5014286  24.0899539  79.1468668  89.0962505  23.5592628
  78.6846733  90.4320621  24.1005182   9.7143938  21.2713432  47.9507113
  10.0951292  20.3951930  48.0109453   9.0826514  21.3078594  48.6689043
 112.5190449  81.2728405  25.0146747 112.7353954  82.1118736  25.4214263
 113.3671188  80.8602524  24.8510218  94.5425224  86.5584087  58.7072897
  94.1690922  87.4345779  58.8027477  94.7118378  86.2711525  59.6045351
 110.2061749  20.7958984  77.0228291 109.5324708  21.4500236  77.2085142
 110.4928161  20.9937286  76.1312389   6.5636303 102.6132202  46.7209578
   6.3084938 103.4393406  46.3102865   7.4255611 102.7894020  47.0981359
  67.0096636  59.1032219  20.5139399  66.9385910  58.5987377  21.3242984
  66.2039137  59.6189117  20.4813981 100.4502487  88.8138103  73.4120893
 100.7409286  89.3200111  74.1707039  99.9781513  89.4453335  72.8693724
  63.2882500  72.8792095  37.8955865  62.5712204  73.2087994  37.3538542
  63.9798164  72.6611233  37.2707582 105.5443954  85.1101875  75.8782434
 104.7495651  84.8009396  76.3127995 106.2582874  84.7977924  76.4341164
  95.3972721 105.8679008  59.8909807  94.9690342 105.3713512  59.1936398
  94.7759819 105.8433914  60.6187344  86.5461063  78.4648943  44.0086651
  86.5027809  77.5624943  44.3249369  86.4035702  78.3949614  43.0647278
  98.4801722  18.3427143  40.3168249  99.1643477  18.5492515  40.9535980
  98.5727216  19.0131282  39.6399069  75.8935928  99.1959572  50.8962107
  76.6676521  99.6673393  50.5882120  76.1915255  98.7313652  51.6782761
  93.7032509  80.4728317  53.2884121  93.4911156  79.5600939  53.4837151
  94.5831108  80.5957603  53.6447287 101.1266948  19.2405986  24.2842317
 100.7768870  20.1108646  24.0932059 101.4998484  19.3198490  25.1621294
  36.0029174  82.8366470  33.5056043  35.4325248  83.0468750  32.7662230
  36.1409618  81.8916893  33.4404993  57.8965425  95.7106876  33.4215426
  57.5940514  96.5982723  33.6136842  57.1462011  95.2868652  33.0048823
  45.8395197   1.7463207  52.4998188  46.6249754   2.2358894  52.7439737
  45.3575327   2.3389720  51.9230270  49.6422389  21.3259601  22.6876140
  50.4430678  21.5683937  23.1525087  49.3980601  22.1148872  22.2036672
  97.2789955  97.9198074  47.6980019  97.4891090  98.7712765  47.3144817
  97.7708244  97.8989506  48.5189199  26.9432308  78.2693720  38.7922263
  26.3857318  79.0456581  38.7393355  26.9419815  77.9126215  37.9039931
  70.4590654  64.4781208  37.5961018  71.2445688  64.1072798  37.9982162
  70.1337719  65.1064062  38.2408261  64.4438791  78.7741184  46.4198112
  64.8760414  79.0195942  47.2378635  63.6668587  79.3318701  46.3826752
 107.0776225  12.8364467  81.4552784 106.4435101  13.3698940  80.9761524
 107.4579764  13.4356689  82.0975494  74.6498489 100.0313759  31.6722727
  74.1148949 100.4661465  32.3363757  74.5912075  99.1008759  31.8889856
  47.9718020   2.9374980  31.6946387  48.7335589   3.2287216  32.1957850
  48.3012965   2.8220939  30.8033776  91.3316059  49.2659092  72.6509666
  92.0652580  49.7424364  72.2624969  91.7421627  48.6329460  73.2400560
 102.7229500  56.3089085  59.9937677 102.0348644  55.6437111  59.9768400
 103.4960747  55.8626223  59.6483278  42.7505686   6.9001388  72.0349741
  43.5397341   6.6912174  71.5351772  42.9254630   7.7637958  72.4088049
  77.1041584  92.7127552  14.8613858  77.8285170  93.0778885  14.3532360
  77.1391392  93.1783676  15.6969798  80.5609798  94.0571499  13.1859148
  81.5065384  94.1738224  13.2783675  80.2876186  93.6544228  14.0101218
  73.9720774  72.0860434  41.1582088  74.0653372  72.1627998  40.2086592
  74.5176601  72.7894258  41.5100956  83.9973259  93.8659859  29.4225740
  84.2169189  94.1599083  30.3066683  83.9018154  92.9169273  29.5024967
  19.6790507   7.2202682  49.9547720  20.5551054   6.8346023  49.9582815
  19.7104361   7.8797054  49.2616653  63.7505150  83.8965416  70.9111595
  64.1643095  83.9481735  71.7727518  62.9002619  84.3203926  71.0280180
  97.1705437  67.4546003  47.7390575  98.1273174  67.4286652  47.7269268
  96.9044781  66.5465021  47.5948238  28.0149081   2.7523708  26.0289454
  28.6567786   2.2240447  26.5033913  28.4451392   2.9653358  25.2008247
  61.3669491  77.4225855  63.6696005  60.7689762  77.7741671  64.3291855
  61.0524750  76.5324688  63.5113811  41.5925360  85.6067753  37.9815125
  41.3442659  86.2830162  37.3512006  42.5262594  85.7524490  38.1337523
  51.2980986  97.9450607  50.5262375  50.8583212  98.5621738  51.1110449
  52.1778536  98.3055782  50.4153633  61.4130354  99.0283394  42.4675989
  61.5814257  99.5344830  41.6728067  61.1296797  99.6787167  43.1102037
  95.6612587  98.6456013  32.5226140  94.9177742  98.3467102  31.9990444
  96.4210129  98.2214642  32.1237302 105.4308510  55.6540966  63.1109381
 104.7638988  54.9675083  63.1093693 105.2068901  56.2038469  63.8618374
 101.2020493  73.7512875  35.3949261 101.0433197  73.5258007  34.4783068
 100.7946873  73.0407763  35.8903694 106.6872215 106.0549831  54.0175009
 107.5303745 105.6676292  54.2526150 106.8160820 106.9965839  54.1315746
   0.8036902   2.1128082  21.6391182   0.6287720   3.0336856  21.4452004
   1.7497494   2.0730495  21.7792010  86.9425297  76.2804651  67.5259066
  87.5856209  76.9762135  67.3895264  87.3409367  75.7118654  68.1848431
 106.7660427  88.4706116  32.1047974 105.8656502  88.6882019  32.3459983
 106.7724133  87.5156689  32.0395279 110.1860524   6.5750789   6.2235701
 111.0804988   6.9092655   6.2907684 109.6782542   7.1289348   6.8165433
  49.6051121 102.8138733  73.4124851  49.8665285 102.0623302  72.8804398
  50.4242468 103.1400490  73.7851286  19.6771433  19.5863628  55.3258181
  19.4914820  18.6684226  55.5237007  19.4570639  19.6808528  54.3990707
   5.0074150  67.1225405  57.1184158   4.3723728  66.4607716  56.8445253
   5.1266624  67.6744413  56.3454866  15.5557444  20.2336215  28.1676245
  15.0802805  19.7865867  27.4673867  14.9059012  20.3526496  28.8602805
  47.1698096  38.3218669  27.5310493  46.7199805  38.7776374  28.2424974
  47.3665335  37.4557781  27.8880167  48.9628699  14.6137809  69.0628529
  49.7063448  14.0280628  68.9199829  48.7680914  14.9694442  68.1957912
  77.1493101  81.4485836   1.9273750  76.8969488  81.7773724   1.0645633
  77.9950333  81.8611050   2.1029226  37.0951083   6.8724727  34.9376607
  37.5795176   7.6468753  35.2238035  37.6765540   6.1388492  35.1375461
  12.4627974  15.8828735  57.8527832  12.7315810  14.9863815  58.0535507
  11.8486311  16.1107635  58.5507011  35.9563258   3.8077258  38.1660485
  35.7044795   3.7738990  37.2431946  36.3112738   2.9378986  38.3494949
  19.0463355   0.6432723  15.9684753  19.9280932   0.4128265  15.6758523
  19.1849520   1.2904548  16.6599762  44.1953185  35.3574657  41.5657234
  43.3059409  35.1209735  41.8289900  44.1057112  35.6565856  40.6608868
   0.5144265   2.6237583  59.8613405   0.2244332   3.0654716  60.6594801
   0.1961853   1.7259216  59.9553537   5.6081870  18.0436611  44.1636658
   5.9367850  18.7804603  43.6485100   6.3789942  17.7094650  44.6223640
 113.0055858   8.1792926  47.8652525 112.4231721   7.6512813  48.4113598
 112.4358750   8.8470554  47.4834871  99.5519733  91.4245701  59.0673447
  99.5930004  91.5753460  58.1229830  98.6261845  91.2564564  59.2430496
 112.7609444 104.1292477  40.2598333 113.5644817 104.0964127  39.7407222
 112.9799461 104.6885872  41.0050917  21.3475897  23.3425331  55.6507683
  21.7649748  22.4852752  55.5663490  21.6678050  23.6836337  56.4858437
 107.3602390  87.7795506   0.9423865 106.6246128  88.3485031   1.1690216
 106.9808388  86.9016266   0.9032957  91.0019970 105.8404446  28.6814547
  90.0680828 105.6457615  28.6031294  91.0985947 106.7104435  28.2941484
  18.5017683  25.0917911  45.5335903  19.1839030  25.7020091  45.8138657
  17.7783015  25.6529903  45.2545261 106.5081931   6.7769431  52.8855801
 106.9211913   6.1019611  52.3470116 107.2157908   7.1084213  53.4384489
  16.7510989  12.5061607  51.8779182  17.3004630  12.5546550  51.0955620
  16.4526465  11.5970897  51.9050360  35.5342772  42.1689510  50.8624125
  36.0676291  42.2663497  51.6512537  35.2777388  41.2467670  50.8590984
 109.5930673  30.6205177  41.0976744 110.2757836  29.9497985  41.0810184
 109.3080331  30.6495094  42.0109940  89.6239376  79.9273634  52.2559166
  88.9398003  80.5535221  52.4928236  90.4180622  80.4566860  52.1824408
  92.7493382  21.1924171  56.2019587  92.8338862  21.2492084  57.1537256
  93.5315228  21.6296958  55.8655024   2.3240329  81.5053749  57.2657728
   1.9936420  82.4025059  57.2185135   1.5430309  80.9694862  57.4039507
  34.0721869  89.1425228  47.5993156  34.3648052  88.2367229  47.6999855
  34.5831943  89.4788837  46.8631315   9.1397669  13.2175826   1.6979279
   9.5527461  12.4646854   2.1208176   9.8559573  13.8374900   1.5600584
 109.8530484   0.4760074  78.8055372 110.1046611  -0.1146317  78.0955601
 110.2511979   1.3145446  78.5719633 106.7920876  93.4166241  47.3528814
 106.1195946  93.3137894  46.6795254 107.2232628  94.2433548  47.1364689
  77.1439934 100.2763844  35.4797959  77.9234838  99.8306561  35.8113909
  76.5594053 100.3308201  36.2357903 105.0477029  11.5439510  62.3583317
 105.2668334  11.1385250  63.1972885 104.1366912  11.2948512  62.2026348
  83.7841892  98.8688278  23.2763410  82.8751850  98.5692787  23.2910514
  84.2724323  98.1343174  22.9043794  11.8445589   4.8571014  16.0204172
  12.0448592   4.0105628  16.4197671  11.5514758   5.4028320  16.7501569
  17.5617649  80.7227421  21.3832784  18.4169437  81.1518097  21.3548732
  17.5711204  80.2238464  22.2001314  51.5788939   8.3510589  26.7000222
  52.1329787   9.1313075  26.6788697  51.2333491   8.3268070  27.5923443
  66.7107916 104.6175194  37.1453452  66.2322283 105.3835487  36.8284774
  67.6248455 104.9003887  37.1722198  68.8632488  84.8282623  24.8316455
  69.0495968  84.7433853  25.7666874  69.4798374  85.4925919  24.5238853
  32.6548769  -0.0910760  50.0944519  33.4203818  -0.2874470  50.6345129
  32.8708937   0.7364845  49.6646643  93.2758332   2.8162860  61.9361353
  94.1447736   2.7179908  61.5468884  93.1538678   2.0204543  62.4538279
  10.9645941  16.6261863  33.5852027  11.2776473  17.4662876  33.9205503
  11.6478064  16.3408756  32.9785252  25.7649805   3.9921569  21.3977695
  24.9732687   4.1476154  20.8827400  26.3787653   3.5954093  20.7796311
  98.0337811  80.8564281  44.9405384  98.8796997  80.4487991  44.7548008
  98.0987644  81.1378574  45.8531237   2.1745923  10.9256172  68.2253361
   1.9856980   9.9898147  68.1558037   2.8992178  11.0695648  67.6167107
  34.2306807  21.4341068  11.1269081  33.6254504  22.1355342  11.3675880
  34.4277766  20.9936714  11.9535875   3.7648966   1.6068839  47.0805597
   4.7158625   1.6891384  47.0088673   3.5933831   1.6232108  48.0221272
  74.5889139  78.1031752  38.5578990  75.3942490  78.0022335  38.0504751
  74.3242693  79.0109491  38.4091139  19.1760828  30.4173946  40.3887892
  19.3352034  29.5076751  40.6404161  19.8366072  30.9175300  40.8681679
  25.0988581   0.2053356  61.5015459  24.1814139   0.0916004  61.2534046
  25.0681021   0.7436847  62.2924089  24.5845034  25.8991908  29.2195940
  23.7666037  26.2184238  28.8383460  25.0941088  25.5914878  28.4700203
  89.6572781 104.1777039  54.1167784  89.7012329 103.4151649  54.6936893
  90.5366611 104.5542717  54.1501188  75.7647800 100.5271626   9.6702647
  75.6064987 101.1611938   8.9708489  75.3512430 100.9137821  10.4421127
   1.0621598  16.8413448  51.8065596   0.1747658  17.1940040  51.7402124
   1.4162447  16.9155120  50.9203577  63.2643747  71.1685991  23.5610247
  63.7522221  71.0513258  22.7458644  63.5762644  72.0040989  23.9087272
  90.6164455 106.1745167  38.5079551  89.6667194 106.2868500  38.5483575
  90.9262466 106.9315815  38.0108666  12.5769855  81.6291046  18.3253658
  12.8669216  81.3088417  19.1795301  11.9161369  82.2908401  18.5293949
  76.4990902  68.0328178  49.8079586  77.3537874  67.6027584  49.7800732
  75.9141541  67.3786163  50.1901913  86.9587898  87.1395111  83.8832664
  86.7894554  87.8489590  83.2633972  87.7817249  86.7521667  83.5849953
  86.3582993  97.2281361  39.9371815  86.6761398  97.9949951  40.4137707
  86.1626720  97.5558186  39.0593505 109.5916797   6.3339137  21.5350008
 109.0572883   6.6344737  22.2700620 110.3649331   6.8977546  21.5547085
  17.8828337   6.3170623  91.9903469  18.8140204   6.4559078  91.8175793
  17.8586008   5.9000587  92.8516006   3.5274651  14.6436786  25.7173991
   2.8467658  14.0195655  25.9691262   4.1786864  14.5826244  26.4162660
  98.8019515   9.3835258  31.9000793  98.7255431   8.8577651  32.6962996
  98.7024308   8.7533664  31.1864805  41.9073107  28.4267330  88.4513283
  41.5321162  28.8233756  89.2375469  41.1495306  28.1254100  87.9501247
  11.3757136  14.6888828  41.2631512  11.4770129  14.1000652  40.5153131
  11.6569807  14.1697502  42.0165586 107.1709967  10.8607578  32.1221662
 106.3943196  10.5155277  32.5624108 107.4926806  11.5468788  32.7069664
  58.2718754  61.0245228  18.0706930  58.1864548  61.8936968  18.4624469
  58.4123659  61.1943960  17.1392226  89.2150402  89.1973591  65.1824570
  89.5777702  89.9971104  65.5633307  89.1511250  89.3856049  64.2461300
  97.5654507  73.3837461  60.0025988  98.3252811  73.8815641  60.3043842
  97.5317955  72.6230001  60.5825663   8.2803442   7.6542091  22.1395254
   7.6040366   8.3242797  22.2387505   7.8328803   6.9236469  21.7125821
  69.3697834  84.3702984  34.4477749  68.6888647  84.5864391  35.0848508
  69.3743372  85.1109982  33.8414907  74.7657061 103.6187935  33.6589718
  75.2046394 103.8484287  32.8399253  75.2437019 104.1044426  34.3312049
  17.7867892   5.0223731  17.2719073  18.3696558   5.7046413  16.9387484
  17.0478060   5.0205802  16.6635168 102.9153634  10.0591754  51.1708403
 103.4923030   9.5728015  51.7597485 103.4756566  10.3031063  50.4340887
  37.7973559  16.9076538  30.0105977  38.4982207  17.5594329  30.0249958
  37.9429533  16.3819599  30.7971597  98.4232712  98.1924152  30.6856132
  99.0226841  98.3837891  29.9642825  97.8047752  97.5590897  30.3214669
  92.3708534  82.1874142  29.8650861  92.3152256  82.1852493  30.8206677
  92.0395756  83.0478287  29.6078348  93.7385845  93.6719799  63.2296085
  93.0543613  93.3010292  62.6724195  93.8203430  93.0514336  63.9538050
  92.2312927 104.2051411  26.6016793  91.7547989 104.6539402  27.3000789
  92.8487778 104.8592186  26.2743855 103.6408234 103.3133793  45.2278137
 104.2246056 102.8069210  45.7925510 103.7623978 104.2201328  45.5093479
   8.8256981  90.7899475  42.4996471   8.4724571  90.3824139  41.7088461
   9.4407608  90.1442814  42.8475618  28.5169890   7.4929714  44.8167801
  28.8784125   6.7081642  44.4048548  29.2839053   7.9803562  45.1176643
  73.5093546  89.4251919  29.7864366  72.7540112  89.8054504  30.2348661
  73.8252831  90.1245308  29.2143059 105.4206848  90.0722504  23.1352615
 105.9558868  90.7218361  22.6793694 106.0259533  89.6469688  23.7427282
  33.5768893   4.1458034  33.9317226  33.6315443   3.5424327  34.6727967
  32.9929259   3.7102603  33.3108187  35.8579924   0.6061553  49.6684074
  36.3949873   0.9663200  50.3741980  36.4857867   0.1871395  49.0797424
 102.5467300 105.1116085  11.4932978 102.1783638 105.5926037  12.2343647
 102.4775887 104.1912174  11.7469430   6.1580756  22.9229068  21.6873407
   6.2747385  23.7102699  21.1556554   7.0134928  22.4937152  21.6706562
  31.1789180  71.2727928   5.8600777  31.7222168  72.0308924   5.6447995
  30.3207924  71.4803410   5.4902422  87.9550172  10.1727580   3.8920081
  87.8944589   9.3769454   3.3635733  87.0653630  10.5259418   3.8959271
  25.3181555   7.7058219  23.5196900  24.7865775   6.9196891  23.3945394
  24.6918967   8.4282588  23.4736466 105.6861305  97.6564026  30.3205681
 104.7677040  97.8401375  30.5179429 106.1719704  98.3374214  30.7857704
  95.2767278   0.4218482  20.9303093  95.5178643   0.1295757  20.0512958
  94.3905784   0.0841140  21.0603237  87.8265096  21.3844203  35.0358939
  87.4598933  20.5043792  35.1216960  87.5544072  21.8361663  35.8347178
  73.6585903  99.1141319  21.5175748  73.9709997  99.9928761  21.3020802
  73.7651539  99.0480709  22.4665284 106.4215851  99.2659378  66.1428690
 106.2998390  99.7916985  66.9334269 107.2341728  98.7844753  66.2982082
  41.0818767  27.7426546  84.2117977  40.8111953  27.5139348  85.1009828
  41.3727950  26.9147127  83.8295544  99.4437695  89.6389198  43.4179831
  99.3931484  88.8281441  42.9117203 100.3428745  89.6609688  43.7456131
   6.9363215   1.5057659  60.5498171   7.7393343   1.2876033  60.0767422
   7.2147086   1.6077327  61.4599466  35.4621603   0.4045391  56.4009809
  35.9835055  -0.2092743  56.9183397  34.5544817   0.1716709  56.5962267
   3.7452223   5.7465362  16.2241435   4.2341950   6.2691974  16.8597317
   2.8388169   5.7846259  16.5294349  12.6076319   9.2884159  78.3799601
  13.3556273   9.6671581  78.8417959  11.9217875   9.9524688  78.4497738
  84.2852402  85.9974766  59.6382093  83.8343143  85.1557064  59.7039509
  84.0332031  86.3378048  58.7797880  97.3814201 103.0373478  36.2264323
  98.3017921 103.0862045  35.9680653  96.8988132 103.0677128  35.4003549
  17.4326374  97.1151447  20.2556968  17.0188762  96.7680931  19.4653881
  18.3514835  96.8585873  20.1773906  73.7919759  77.0346181  89.8466239
  73.9070081  77.4920099  90.6795669  74.4712781  77.3975770  89.2782563
  86.1399269  87.4748039  40.2427626  85.8420753  87.6370907  41.1378479
  85.5380821  87.9787540  39.6949887 105.4106189  49.8437213  44.6145058
 106.0034467  50.0076579  45.3479290 104.6007443  50.2931404  44.8560762
  81.5831111  86.3616372  61.5982151  82.1654145  86.6748381  60.9060764
  82.1445206  85.8273674  62.1600056 100.1548121 104.5187672  42.2918749
 100.8884213 103.9212031  42.1470833  99.6299121 104.0936798  42.9701185
  77.0518859  92.3393429  34.2750311  76.4098616  92.6044703  33.6164379
  77.6600502  91.7715932  33.8017154  54.6305799   6.8919253  75.5724478
  55.5869913   6.8531567  75.5742216  54.3976164   7.0163703  74.6524096
 106.4436076  84.1961432  29.1452551 106.4721654  83.2682896  29.3787098
 105.5127499  84.4185877  29.1611767  15.6683600   3.1191286  33.0134034
  15.0044549   2.6602897  33.5281157  15.4723418   4.0471193  33.1424069
  97.1316621  91.8090380   5.1627749  97.6001904  91.9062961   5.9917825
  97.7037666  92.2200072   4.5146763  72.8213978  22.2123408  56.5523005
  72.9075527  23.1220460  56.2672710  73.3402443  22.1627355  57.3551512
   8.5602862  28.7864280  38.9919376   9.2942399  29.1774178  38.5179424
   7.8149754  28.8798833  38.3986330  48.5109138   1.1909416  36.3273501
  49.1557837   1.7466532  36.7650223  48.4035587   0.4415885  36.9131613
 111.1255786  91.6021765  18.9914238 110.2492831  91.7397655  18.6316895
 110.9775517  91.4186800  19.9191356  49.2078730  69.3977480  82.0632172
  49.9117121  69.9863642  82.3359311  49.0998480  69.5707279  81.1279953
 106.3587401 104.4373727  10.6706262 106.8952129 104.3760102  11.4609826
 106.0858319 103.5366992  10.4958689 100.0387142  65.8797551  46.0404348
  99.3217299  66.3460970  46.4701843  99.6472380  65.5196047  45.2446508
  32.5633668  87.1837593  18.7268031  32.6574468  87.7307892  19.5066357
  32.0327377  87.7093649  18.1281352  59.5270440  28.2274645  91.9183166
  59.7367355  29.1604250  91.9612895  59.9226996  27.9305475  91.0988465
  97.7496955  93.0585516  33.3926487  97.7871606  93.3748603  34.2952991
  97.8590033  93.8452602  32.8584456  13.0387258  79.1586900  16.4224231
  13.7393235  78.6398745  16.8176746  13.0336856  79.9748111  16.9225764
  85.7013581 100.3567285  19.8990929  85.6000803 100.3299130  18.9476430
  86.4857194 100.8865333  20.0416279  30.8968425  48.5794067  21.1425948
  30.9916377  47.8744173  21.7830920  31.6888618  49.1065645  21.2476683
  96.7229412  90.7531012  39.2619348  96.6559312  91.6669119  38.9850044
  96.8856666  90.7996595  40.2040529  14.6921396  20.7696199  23.3395123
  15.2962351  20.0817418  23.0600047  15.2578187  21.5083194  23.5643721
  45.7299661 105.8857322  43.7277842  46.2156152 105.3408865  44.3470764
  44.9409341 106.1444376  44.2039490 109.8487098  15.2106655  39.2756128
 110.3724544  16.0115719  39.2538667 109.1150530  15.4198778  39.8537207
  14.5377040  40.9632444  36.7484498  15.0796902  40.2506113  37.0870304
  15.1643240  41.6405773  36.4938831  25.0207423 104.0724964  14.6375275
  24.7363090 104.7301560  15.2722013  25.4279946 104.5785291  13.9344561
  60.1303005   0.5708700  40.9878016  60.1881456  -0.3213099  40.6458902
  60.3778076   1.1269829  40.2490759  18.5501813  93.3268893  28.9666820
  19.2811870  92.7482761  29.1836333  17.8031110  92.9551161  29.4356227
  75.8849469  98.8046671  38.9653492  75.2307793  99.4741065  38.7649798
  75.5412403  98.0063290  38.5644078  34.9962306   6.9930327  26.8813539
  35.3136754   7.8678066  27.1054769  34.6867990   7.0743793  25.9792066
  28.9212989  55.7394124  43.6164999  28.9375877  55.9964228  44.5384073
  28.5863017  54.8427773  43.6237001  27.9870200  24.1008162  14.5679975
  28.1024504  24.5445704  15.4082298  27.8640914  24.8103046  13.9373267
  94.9021754 100.8677334  33.6419225  94.0877399 101.1528963  33.2276654
  95.1644764 100.0922692  33.1458521  38.7402177  20.7183480  17.8317046
  38.8721704  20.6150842  18.7741256  37.8842115  21.1396766  17.7544582
  62.0062623  91.0633076  35.2717042  61.8391178  91.9535125  35.5812645
  62.2958992  91.1750198  34.3662405   1.5355157  96.3690138  56.7961836
   2.1697187  95.6616033  56.9127560   1.6010546  96.8843407  57.6001596
  41.7879629  11.0183692   5.0958085  41.1957407  11.3966870   5.7457173
  41.3585711  10.2072287   4.8239475  14.1384601 103.6507094   9.5653832
  14.7120761 103.9910478   8.8788253  13.7517547 102.8619373   9.1852117
 101.2364695  76.4059568  21.2527752 100.5640624  76.4264560  21.9337153
 101.3133571  77.3155141  20.9646344  17.7887607   9.7600389  53.8301802
  18.2891345   9.1039544  53.3449888  18.4279060  10.1616621  54.4187593
  29.8313069  20.0322723  29.6250010  29.4585896  19.9587297  30.5035830
  30.7781768  20.0213766  29.7648335  97.2368453  86.5930915  25.3383875
  97.5626895  87.4095786  25.7170773  97.5422118  85.9123302  25.9380078
  15.5476045 103.3556119  12.0499265  16.4322995 103.1769375  11.7311478
  15.0149726 103.4162468  11.2569225 108.5305474  86.1956978  54.9915361
 108.3670042  86.3063908  54.0549278 108.2271979  85.3085685  55.1844358
  32.3985528  66.1892033  45.6373549  32.4655103  66.8443418  44.9426985
  32.3670243  66.7001057  46.4461899   9.5696914  26.6110206  70.1644516
  10.0073922  27.2128367  69.5624018   8.6620039  26.9139600  70.1881695
  79.4800398  90.5481911  34.1703987  79.4882078  90.1422549  33.3035755
  79.8521028  89.8832679  34.7497749  36.9697618  16.0596931  58.4530640
  37.7532244  15.9601080  57.9122305  37.0967650  16.8924558  58.9076090
  53.4939766   5.6873459  34.4989300  53.3630371   6.3195491  35.2056170
  54.3504667   5.3000647  34.6796703 104.3362854 101.2698293  41.0145235
 103.9946792 101.1421961  40.1295137 103.6397383 101.7378951  41.4749289
  22.1719408  10.1463270  18.6567938  22.2304583   9.1949952  18.5686207
  22.1618891  10.4701781  17.7560985  43.5556316  27.1118522  39.0412164
  43.0371380  26.8989587  39.8171496  43.5257483  28.0670977  38.9878726
   6.4742994  79.7494889  52.6191902   6.0976934  78.9994574  53.0794668
   5.7240342  80.1809764  52.2103453  13.8018370   8.1932437  28.0038524
  13.3516097   7.5829673  27.4198222  13.3692968   8.0782831  28.8499737
   1.8610699  18.3389378  33.6373806   1.9808938  19.1683865  33.1748986
   2.3466367  17.7008784  33.1145644  59.7681236  14.6270096  39.0612531
  59.3805075  15.2890682  39.6336722  60.5774784  14.3717754  39.5040035
   4.0040839   4.2198464  33.0262971   3.5699803   3.7790999  33.7567282
   3.8663083   3.6375496  32.2791839  54.2649412  10.5744517  20.9741831
  53.7225008  10.4189384  20.2010036  53.6942530  10.3642809  21.7133522
  71.9964478 102.8378940   7.4568957  71.4633355 102.5807435   8.2091570
  72.7454770 103.2950646   7.8392339  40.4945803  18.6583257  25.7046866
  40.8267450  18.7578082  26.5968728  40.1988840  19.5352185  25.4600334
   1.3097957  14.8162794  16.6010153   0.7488500  15.4157591  16.1088812
   1.1345222  13.9562714  16.2190509  55.7733250  13.7924647  38.4760070
  56.5285587  13.6656642  37.9017496  55.6426620  14.7405326  38.4940529
  35.9222126  59.1999483  26.3939595  35.6778932  59.6271133  25.5729437
  36.4254737  59.8620129  26.8679070  10.7524919  89.8135460  27.3988533
  10.6643724  90.4782475  26.7157435  11.4871072  90.1152087  27.9332376
  74.1464087  45.8330374  90.5987136  74.0000936  45.1897817  89.9051392
  75.0988480  45.8921211  90.6735406  93.4199379   6.6608089  11.9573712
  92.6094983   7.1623045  12.0463896  93.9854334   6.9938326  12.6541793
  67.7326155  55.3240728   7.5382614  67.4503994  56.1122942   8.0022603
  68.5729790  55.0990820   7.9375106 109.8234341  82.7304173   6.6890424
 110.7738016  82.7323127   6.5748793 109.5088694  83.4073234   6.0898101
  99.9296305  77.1138716  47.6288462  98.9901373  77.1211339  47.4457312
 100.1464794  76.1872292  47.7315235  91.3176060  10.2436304  29.3653584
  90.6135082   9.7392470  28.9578438  91.5300274  10.9206772  28.7229300
  53.7330389   1.8885265   9.3583810  54.3180799   1.5114941  10.0154996
  54.3201303   2.2586133   8.6991435  14.4110631 100.5777735  34.9809170
  14.4077348 100.5094123  34.0261674  15.2283000 101.0321272  35.1856637
  30.8730458  96.5360809  20.3435349  31.3897323  97.3327256  20.4644442
  31.5186786  95.8615053  20.1329780  30.4418445   6.4152813  32.1979427
  30.2801347   6.4692008  31.2560415  29.9833798   5.6218827  32.4746370
  28.3590411  71.5195633  22.9854655  27.9080915  71.3555432  22.1572280
  29.2682265  71.6832471  22.7348351 101.2324378  32.6406997  90.3770440
 100.6296775  33.0833214  89.7795523 101.8285319  32.1596449  89.8030317
 112.8094695  83.4763885  31.4710426 113.4836218  83.5329986  32.1482015
 113.1975172  82.9241324  30.7923222  18.5272454 103.1515560  33.5921001
  19.2962932 103.5577795  33.1923723  17.8102683 103.7561346  33.4006333
  71.3072130  73.1703454  85.1292378  71.8309185  73.3078437  84.3398983
  71.9489452  73.1289690  85.8382500  36.9002891  33.2185888  54.9998379
  36.6898346  34.1475344  54.9049711  37.7966237  33.2091451  55.3355837
  86.8172631  63.8094378  17.3797035  87.2141204  64.3640614  18.0513632
  85.9437368  64.1785908  17.2496700  13.3070028  32.4626327  39.1683483
  12.9916358  32.4523544  40.0720453  13.7896335  33.2857609  39.0924454
 112.2155926  97.3253507  37.0924735 111.6855595  97.9233558  37.6194334
 111.6379020  97.0607979  36.3765717  39.7696304  90.2080381  43.0753851
  40.5238341  90.6504751  42.6859474  40.1497792  89.5995808  43.7090254
  25.3671884  87.8289772  30.7113147  25.4399633  87.3686672  31.5474081
  25.1517963  87.1437586  30.0786114  35.7315063  42.3351574  27.3429728
  36.1661792  42.9285002  26.7304111  34.9173999  42.0907640  26.9028258
  12.2064352   8.8346404  37.6827574  12.0730996   8.0197823  38.1669664
  11.6901326   9.4841164  38.1600857  50.1494360  36.9696140  71.1257172
  49.8565197  37.0352411  70.2168036  50.7981014  37.6672626  71.2192774
 106.1145351 106.2533317  25.7490635 105.2594826 106.5721056  26.0380292
 106.7438290 106.7374018  26.2837601  13.3258962  98.2356573  38.1983924
  14.1105508  98.4673977  37.7015591  13.1089114  97.3509181  37.9044795
  70.5597333  94.8986817  41.6832399  70.1445696  94.5004643  40.9181976
  71.1316398  94.2135060  42.0291996  15.7177161  98.5866219  36.6840672
  16.5226316  98.1386883  36.4238858  15.8045148  99.4668943  36.3182545
   3.2591832  20.4216266  16.6269159   3.1444067  21.2103391  17.1569991
   4.1781008  20.1828671  16.7486382 102.5965618   7.6781893  35.4991722
 102.9045342   8.5689610  35.6662416 102.0573686   7.7548707  34.7120094
  26.8177867  25.5229831  24.3390822  26.8195391  25.1202226  23.4707427
  26.1355114  26.1926365  24.2911220  38.4128904  14.1488862  25.0722909
  38.2190537  14.7664309  25.7774854  38.6577106  14.7018075  24.3302846
  86.0506020  86.4415718   4.2673394  86.8120751  86.9955111   4.4392166
  85.2986268  87.0122302   4.4258112   3.3388614 102.1282217  53.2097006
   2.8852510 102.9676864  53.1337786   3.5668372 102.0621780  54.1370106
  35.3578281  28.9491487  33.4673095  35.3698301  29.1365314  34.4059134
  36.2619257  28.7142134  33.2583952   5.9417724  75.7313777  34.4754219
   5.3914880  75.1799059  35.0315690   5.5591773  75.6480218  33.6019778
  47.5780869  19.3389654  16.2803996  47.9789400  19.6494389  17.0922816
  46.6860914  19.0981174  16.5305305  87.0493469 101.4497793  47.1078968
  86.9333205 102.0697302  47.8279209  87.9225693 101.6409511  46.7655993
   1.6707491  99.7161598  35.0089908   0.8248352 100.1202983  35.2022123
   2.0286774 100.2405525  34.2926598   7.4433612 103.3525158  33.0085611
   7.0245361 103.4151218  33.8669872   7.0035648 102.6179672  32.5804853
  93.0272481  23.7094539  77.5586522  93.6735532  23.0870741  77.2252405
  92.7737614  23.3574789  78.4119344  68.5982037   4.4284967  27.3641324
  69.2198610   4.1595492  26.6877890  67.8261089   4.7182843  26.8782043
  38.3872366   3.9512622  10.7839632  38.1621575   3.2396224  10.1846802
  37.8969097   4.7049499  10.4556859  49.2769480  33.6011052   9.5225680
  49.8593426  34.3091774   9.2474639  49.1307402  33.0886483   8.7274301
  37.9026890   2.7946231  30.4576254  37.2147083   2.6289970  29.8130441
  38.3843756   3.5436681  30.1067114  36.4887340  39.4056027  86.0653639
  36.8795611  40.2323073  86.3482875  36.8799605  39.2366593  85.2082575
  18.2070445  78.5756326  47.7467871  18.4807729  77.8870130  48.3526802
  17.5640725  78.1523920  47.1778488  47.6863718   0.4213788  28.5331321
  48.4156609  -0.1473031  28.7800503  47.0196486   0.2592842  29.2005396
  83.1094596  78.4141582  87.9260400  83.2536408  77.4704712  87.9960418
  83.2599398  78.7457555  88.8112694  82.9382703  57.4630695  84.7908944
  82.1734139  57.1253260  84.3248988  82.5821587  58.1140947  85.3955281
  11.3709807   5.1409966  56.9830561  10.6343186   5.6665236  57.2951174
  11.3817668   5.2820182  56.0363626  83.8694763  29.8661399   6.8361801
  84.6679878  29.5920968   7.2872919  84.1064644  29.8666692   5.9087831
  13.4703577   5.0689065   6.4748925  13.9316320   5.0497246   7.3133969
  12.5608575   5.2575171   6.7061210   7.8694009  96.1645628  15.2964032
   7.0724773  96.6020752  15.5959475   7.6780271  95.2309347  15.3855419
  16.1891580  10.2710664   4.9088386  16.7357683  11.0568142   4.9158433
  15.3038788  10.5965948   4.7459108  58.6226974  92.8448392   2.3590532
  58.2646153  93.1436992   1.5231746  59.5384810  92.6417900   2.1684180
  22.1410394  17.5807834  37.9417682  22.7577591  17.4457133  37.2222924
  21.7678237  16.7142463  38.1031823 104.0879580 100.2281778  79.8839808
 104.9393841  99.8109119  80.0151027 103.6904809 100.2401798  80.7546711
   1.5584921  74.1510487  39.5623994   1.3651966  74.8795057  40.1525021
   1.8211483  74.5699621  38.7427926  88.2228324  59.4102054  78.3549452
  88.3797213  59.8280185  79.2017329  87.4401089  59.8439669  78.0152011
  21.9199084 105.9083464  67.3928547  22.3511457 106.0024620  68.2422066
  20.9997796 105.7544828  67.6071501  24.6215892  30.0446963  34.0324974
  23.9461136  30.5547047  34.4795513  25.4268241  30.5447316  34.1658926
  28.9011836  22.8037000  19.8214412  28.1338358  23.3608341  19.9518657
  29.3228173  22.7718878  20.6801891  51.0621691   6.2629247  33.1404424
  50.7303333   6.9284129  33.7431359  51.8887901   5.9778917  33.5299087
  53.0383587  14.6745217   8.5637772  53.1491899  15.5640471   8.8994718
  52.4995041  14.7798288   7.7796996  43.1024265  37.7814054  28.9080429
  42.7825928  37.2162127  28.2048392  43.1876564  37.1993351  29.6631336
  23.2780933  97.1612549  11.1268282  23.8725566  97.4275715  10.4254591
  23.5219764  97.7130885  11.8699515  31.2390423  18.3633208  39.5217466
  32.1449113  18.0635178  39.4459033  30.9632802  18.0747056  40.3917408
  69.4797802   5.7421112   5.7640117  69.1560888   6.4044249   5.1534408
  70.1545143   5.2731299   5.2730674  23.3851576   8.2691252  26.4743042
  24.2275357   7.8480172  26.6454697  23.5661674   8.8881427  25.7669973
 108.4095571 101.5139360  60.3552198 108.9060829 101.0105295  59.7100258
 107.5459430 101.6265429  59.9580812  45.6860495   6.3755167  35.0578475
  45.8022881   5.5634248  34.5646667  46.3625288   6.3438380  35.7343102
  41.9389820  12.8273404  34.5140338  42.5795841  13.4791732  34.2294693
  41.2622452  12.8452718  33.8373232   5.4384482  30.5443621  76.7934561
   6.1950928  30.5716443  76.2078142   4.7692770  31.0609007  76.3444233
  38.0364609  25.3947306  55.8028555  37.2718835  25.3015232  55.2345562
  38.4774733  26.1820960  55.4838037  26.0991716   4.1846472  27.4339080
  26.8946671   3.7817582  27.0859146  25.7220221   4.6525314  26.6888738
   5.7722902  58.0956411  55.5213022   5.5985922  57.1663857  55.6714630
   5.3760141  58.2787704  54.6694422  22.9127288  62.8923702  26.3822293
  22.2036409  62.9755878  27.0198035  23.0133677  63.7725258  26.0196900
  57.6763388  87.4132817  75.8458758  57.3320469  87.3485559  74.9550867
  58.0028030  86.5348642  76.0408926 103.8018653 103.9145582  90.9527763
 103.7007424 103.3310907  91.7048240 104.1473815 104.7262972  91.3241615
  11.9427823 104.2611436  22.0827603  12.7276563 104.6744922  22.4424005
  11.6739082 104.8386536  21.3683248 105.7793281  98.3298463  18.3601344
 106.6278789  98.0578107  18.0105782 105.5627463  99.1242427  17.8720176
 111.2882278  94.1968680  57.2225189 111.5709136  94.1056169  56.3125753
 111.9693635  93.7559033  57.7302933  24.1998744  31.0270691  48.5211515
  23.6224008  31.7847466  48.6143208  24.7942233  31.0854936  49.2691946
  25.2742195  21.9436097  59.3420410  25.4155421  21.5920472  60.2210522
  25.2167726  21.1701202  58.7811041   9.9281453  98.9960284  15.5356658
  10.3416061  99.8272521  15.3025413   9.1610335  98.9419401  14.9657118
  72.1536395  70.8300667  92.0226454  72.0816418  71.7301481  92.3402953
  71.2567040  70.5831187  91.7973536 108.6677493   0.1072558  10.5350924
 109.5728533  -0.0217833  10.2516019 108.3563207   0.8465971  10.0129628
   8.2961267  11.4746177   8.0354142   8.1087577  11.3688278   8.9681166
   7.4665660  11.7644083   7.6558316  32.6790500  30.5115128  24.0508747
  33.1924629  31.0129261  24.6842980  31.8896103  30.2582526  24.5292854
  27.1373796  27.7900338  78.4573746  27.6819587  28.1200266  79.1720533
  27.5245070  28.1672859  77.6674080  74.1688681   3.9118087  18.9222050
  73.7458038   4.3514529  19.6597421  74.3912554   3.0430084  19.2568123
  35.1495123  11.5934074  77.2814512  35.4950237  12.2899747  77.8397036
  34.9816227  12.0206976  76.4415312  38.0252695  27.3899031  21.8178225
  37.2544694  27.5342655  22.3666954  38.0116653  26.4518642  21.6277456
  76.3922453  14.5623827  31.1251569  76.6434193  14.6259344  30.2036881
  75.5302715  14.1464353  31.1103082  31.4576721   5.7748216  21.8019223
  31.5753675   5.9366006  22.7379799  32.3145127   5.4716742  21.5016580
  68.5210085   9.9704289  28.1064320  68.0831337   9.8060346  27.2712851
  69.0288544   9.1759360  28.2710719  26.7037845  25.6890512  54.8098373
  26.2456703  24.8513842  54.7414398  26.4277530  26.0447311  55.6545448
   0.6550764  89.6490682  27.7867770  -0.1351262  89.3852211  27.3153996
   0.7664537  88.9791954  28.4613872  48.8384533  16.1993015  58.1168556
  49.3784904  16.9081116  58.4663963  49.4635820  15.6023645  57.7056265
  57.4189568  14.6861792  23.7739944  58.0522060  14.6037185  24.4870353
  57.7522564  14.1061342  23.0893850  40.7647467  47.3492575  23.9428830
  40.9237432  47.6735830  24.8293161  40.6095171  48.1381416  23.4234595
 112.6414297  92.0571757  45.1574135 113.0566523  92.7662671  44.6664858
 112.6649902  92.3506415  46.0682106  98.2340763  80.5730630  20.6544757
  97.3159835  80.8399010  20.6082773  98.2031486  79.6526623  20.9155107
  12.0708036  76.1582065  63.6345482  11.1285924  76.2732125  63.7580061
  12.1452617  75.6226922  62.8446674   3.3812505  15.8807206  37.9675674
   4.1638172  15.4403591  37.6360512   2.9411176  16.2093341  37.1836495
  27.1584176  98.2284153  31.0706329  27.7559232  98.4004373  31.7983913
  27.2321414  97.2863830  30.9177542  26.8106984  85.6516696  46.5290260
  26.2140083  84.9556470  46.8042374  26.5988206  86.3890267  47.1014261
  35.4081487 104.8650472  17.5115871  35.2070951 103.9575542  17.7402008
  36.3211869 104.9815757  17.7743018  86.7539406   8.7157011  33.6134815
  87.2947311   9.3112928  33.0947876  85.8540726   8.9721942  33.4117866
  97.4415634 106.4757865  35.1391602  97.8090212 105.8323423  34.5332003
  98.1415627 106.6357582  35.7721233  31.6552806   2.8900737  32.7125239
  31.8350577   2.2909337  33.4370542  30.7010531   2.9629084  32.6931000
  51.2324953  25.9295058   3.4007764  52.0544481  25.7358456   2.9500824
  50.9421015  26.7597318   3.0231133  64.5529604   7.6156461  62.7430058
  64.0050554   7.8615278  63.4883738  65.1329088   8.3661705  62.6141548
  53.9414549   9.1198850  38.9625931  53.8738108  10.0737417  39.0051651
  54.5781565   8.8944161  39.6408319  51.5340996  34.9947453  27.9914546
  51.6079855  34.6764016  28.8911366  50.5923557  35.0852990  27.8460145
  35.5854082  15.1699710  10.7045019  34.7927094  15.3901148  11.1937845
  35.8738828  14.3371940  11.0779941  63.4580517  24.0300012  24.8930335
  63.5118103  24.9468112  24.6232224  63.4233046  23.5401702  24.0713954
  56.9852039  94.0844172  84.3013734  57.7428302  93.9862269  84.8780799
  56.6383490  94.9524706  84.5073068  62.5931379  86.8877285  81.3316989
  62.3468372  87.7222341  80.9327436  62.8354522  86.3308209  80.5918539
  35.9349632  17.1280837   6.3812995  35.6109333  16.2482786   6.5741134
  35.5720544  17.3335028   5.5197132  57.5989103  18.4302366  38.7142730
  57.9469776  18.3399415  37.8271842  57.0634317  19.2229843  38.6819148
  45.8959007  31.6802502  16.3165283  45.2475452  31.1428285  16.7715526
  46.0433865  31.2263846  15.4867780  10.4236507  92.0114720  30.8796835
  10.4412412  91.0607839  30.7696176  11.1532687  92.3278034  30.3469324
  44.6729660   4.4667959  28.4195590  45.5822086   4.6441475  28.6605096
  44.6432304   3.5208008  28.2765865  19.0899896  87.8666723  34.8910856
  19.0176725  87.6342166  35.8168125  18.6127566  87.1751619  34.4325089
  88.5970650  87.6373017  23.4780693  88.2129381  86.8259442  23.1458378
  89.4841013  87.6471532  23.1184816   8.9965963  77.2563816  22.0403934
   9.4170665  76.4642120  22.3749137   8.9907788  77.1414281  21.0901403
   7.3514146  25.2855134   8.9576441   7.0428765  26.0872746   9.3798023
   8.3053482  25.3336883   9.0202731  66.9620058  59.5702499  88.9743650
  67.4764320  59.2267775  89.7048599  66.5412947  60.3549533  89.3257556
  90.4567871  92.2418178  11.5261042  91.3761208  92.3951662  11.7441404
  90.4832516  91.6107500  10.8068776  25.4985166   3.4376833  50.9448147
  26.0918784   2.8841728  50.4370975  25.5347300   3.0777919  51.8310404
  47.3104429   3.9290452   4.2538437  46.9212055   4.1799289   3.4161186
  48.1762028   3.5914969   4.0241617  17.8769541  39.2816591  13.3582270
  17.9768121  39.8960352  14.0854144  18.7720215  39.1078448  13.0668950
  87.9887221 103.5447953  26.2053823  87.5850604 104.1674841  26.8099880
  87.7425621 102.6852295  26.5471196  15.3126001  95.3177572  18.7739027
  14.8002099  95.7257653  18.0758929  15.8663558  94.6802247  18.3231962
   9.4852853  23.2460666   1.5580058  10.1324832  23.4828162   0.8936892
   9.7577357  23.7265325   2.3397711  96.0813485  28.2802916   3.6390698
  95.1807021  28.3780026   3.9481306  96.4448832  27.5781918   4.1786343
  62.4552011  20.2669716  55.4270172  61.7048502  20.8549953  55.5132389
  62.1373320  19.4240320  55.7504988  55.4590559  20.1684713  10.2655315
  55.8260202  19.3191803  10.5110431  54.5463610  20.1265645  10.5509496
  40.9368467  16.2054002  24.6459556  41.3951302  16.4479280  23.8413525
  40.9205723  17.0100319  25.1641583  11.9441079  90.1528860  15.5060518
  11.5867948  89.2840016  15.6893528  12.5030755  90.0251806  14.7395802
  29.4163942   2.0974588  75.9366226  28.5766888   2.4622643  75.6572628
  29.6608901   2.6178327  76.7019129  34.5052099   9.5097411  44.8974848
  34.7841072   9.4217402  45.8089161  35.3079510   9.7206521  44.4206715
   2.7258491  98.8449115   3.4781089   2.5746965  99.0391195   4.4031322
   2.4979829  99.6554959   3.0228496  66.4804125  31.5359306  35.8842206
  67.0146990  32.3270154  35.9546161  65.8481598  31.7345977  35.1935577
  54.5015144   3.1138754  52.2035170  54.7861767   3.9358220  51.8040180
  55.2765036   2.7894932  52.6622105  66.5417051  25.2194858  26.1791515
  66.3140917  25.9714866  26.7258859  65.9808016  24.5126462  26.4985251
  19.4004953  10.6596959  35.5020261  19.6987212  10.4823565  36.3941264
  18.7651026   9.9673754  35.3198195  28.7580609  27.2974920  14.7335589
  27.9333520  27.7827454  14.7583926  29.1461205  27.4403858  15.5968213
   7.4863385 102.3524580   8.1261665   7.2624873 103.2329953   7.8248763
   8.1835174 102.0672405   7.5355488  73.7557173  12.9693556  49.7548008
  74.2870808  13.2201755  48.9991713  74.1335821  12.1404898  50.0487900
  59.0807244  84.8956936  81.8771887  59.2089793  85.0886243  82.8059292
  58.3689591  85.4763525  81.6080058  31.9600797  21.4328957  39.3457770
  31.7500520  20.5012560  39.4103098  31.8619990  21.7629552  40.2389050
  65.3800201  38.6886883  33.1255054  65.6770086  38.6156964  32.2184753
  64.8709488  37.8921151  33.2756853  17.3189019  94.9817563  64.3709803
  17.3617314  95.2788699  63.4620667  16.5620517  95.4393066  64.7371197
   4.6304034  92.9048026  29.2085171   4.1212129  93.7130356  29.2694902
   4.5082521  92.4801326  30.0576138  73.1560898  38.1184220  27.8091335
  72.3497581  38.5203147  28.1324601  73.6044836  37.8131175  28.5977840
  86.5332314  48.7771475  92.7580462  86.5664479  48.5958504  91.8187593
  86.5874812  49.7307997  92.8199747  21.0509133  21.3983846  24.9914217
  21.7690563  20.8174729  24.7403336  20.5873394  21.5738916  24.1725636
  42.1236086  23.1199050  26.1255312  42.3361588  23.6880875  25.3851080
  42.2608900  23.6700320  26.8967295  47.6134586  39.7767496  17.3421562
  46.7933655  39.4650149  16.9594049  48.2547951  39.1032839  17.1155071
  49.7611427  15.1267016  32.7002144  49.4902372  15.7096791  31.9910002
  49.7627354  14.2544925  32.3059034  19.6896266  82.3026562  20.8251119
  20.1535653  82.2572208  19.9890935  19.6078061  83.2396126  21.0030174
  38.3412004   7.1285915   0.4930598  38.2006884   7.3368430   1.4167045
  39.1069794   6.5543014   0.4908269  33.9858960 105.5924963  25.1249552
  34.1512441 104.6924040  24.8443723  34.0705775 106.1119831  24.3254590
  28.4555292   2.7756080  46.3875580  28.1577516   2.5575274  45.5043840
  28.0475259   3.6207393  46.5760231  70.1531601  10.9167624  17.1235037
  70.4151106  11.8293893  17.2448444  70.8948708  10.5125141  16.6733050
   6.4858150 101.2773544  22.9234147   5.6387996 101.7184371  22.9885626
   7.0094871 101.6591502  23.6278534  40.3070450  45.7154322  60.4942894
  40.3799438  46.6055250  60.1498318  40.3759193  45.8194876  61.4433193
  50.3695488   7.0290762  48.9776993  50.3915501   6.0894781  49.1590881
  50.0987339   7.0898831  48.0616236  52.8798771  27.6441574  39.2430544
  51.9285107  27.5421286  39.2699385  53.0181503  28.5903049  39.1992593
  13.6630963 103.6896372  30.7899714  14.1565465 103.2198969  30.1176000
  12.9512595 103.0942289  31.0244989  44.0687314  49.3460199  75.1472688
  44.0778330  50.1609629  75.6492818  44.0988055  49.6276107  74.2329192
  23.2481480   6.5940833  43.6624670  23.2452035   5.6720096  43.9193773
  22.7188659   6.6223347  42.8654146  83.9335251  27.2193980  13.2681835
  84.0061092  26.4448881  13.8259459  84.5354843  27.8529882  13.6586177
  15.7431459  20.2438474  44.6583557  16.0089064  21.0284591  44.1787863
  15.2463472  20.5767488  45.4057503  15.2939880  20.0365710  13.4596312
  15.5504262  19.1284466  13.2990646  14.3559468  20.0576258  13.2702470
  59.2695141   1.5422118  48.2638264  59.7655773   1.5605402  47.4454021
  58.3535385   1.5084130  47.9879999  69.9858856   7.6865137  27.3224950
  69.5146990   7.1404648  27.9518175  69.9050140   7.2184145  26.4914870
  19.7544634  14.7227049  28.2022524  19.6732652  15.5312240  28.7081528
  19.0391433  14.1701758  28.5173082   6.0283374  98.1294269  37.5474834
   6.3210963  98.1011779  36.6365910   6.7899369  97.8450376  38.0527735
  53.8365364  27.8188252  60.7575178  54.5597696  28.2081461  60.2659941
  53.1101227  28.4309864  60.6399727  78.1601334   8.7744653  26.2293744
  77.3837996   8.2214153  26.3169742  78.4083128   8.9832693  27.1299505
  73.0972099  20.1308060  53.0446720  73.6894989  20.6230116  52.4762011
  73.0708504  19.2540860  52.6613998  36.3238621  24.3979049  34.0817523
  35.6111741  24.9638748  33.7851310  36.2302709  24.3740749  35.0340676
   3.7614106  94.7730244  57.3283672   3.9401721  93.9065469  57.6937389
   3.9566754  94.6845270  56.3954830  49.2855549  38.6180925  38.6406875
  49.8741865  37.8728271  38.7603664  49.8689365  39.3699574  38.5377574
  19.2735445  18.2553029  22.5327134  19.7509170  19.0045333  22.1763420
  18.3955157  18.5929155  22.7096748  41.7564917  22.7340269   6.6729373
  42.6149511  22.7967978   6.2542051  41.9410563  22.3914909   7.5474870
 103.6682507  29.5823734  72.3990620 104.0108391  30.4466575  72.6268316
 102.7946946  29.5604103  72.7897644  32.0672035  16.1625171  34.0679598
  31.2480235  16.0326421  33.5901451  31.7959023  16.5036261  34.9201775
  10.6039333  91.2302340  20.0243521   9.8116874  91.2996793  19.4916618
  10.2821397  91.1296416  20.9202099  67.9102182  13.2740927  32.9617596
  67.7321815  12.7696073  32.1680164  67.0946884  13.7445009  33.1345415
  16.0171317  88.1271315  36.7434525  16.9268130  88.3226991  36.9680834
  15.7653712  88.8231183  36.1364484  56.1733294  17.6626670  34.1915417
  56.3817406  16.9646430  33.5706091  56.9985771  18.1332660  34.3087268
  14.9606228   4.8204935  35.4645371  14.8243165   5.3595304  36.2436986
  14.1077185   4.4187623  35.2990150  51.0018682  40.6790066  37.8384924
  51.7230988  41.0781717  38.3250403  51.3955069  39.9217987  37.4049997
  31.6278863  11.3868058  22.7019119  30.9582400  11.5317273  22.0334792
  32.3361635  11.9855702  22.4651480   2.1458526  16.7647898  29.6968985
   1.7244335  15.9083557  29.6250677   1.4692855  17.3876667  29.4313550
  49.7315073  15.9175825  22.9095888  49.2952204  16.7625082  22.8001165
  49.0647602  15.3525400  23.2999802  36.8507290  47.0186377  90.0163651
  36.0729647  47.3666620  90.4524708  36.8201780  46.0773325  90.1873684
  41.1024809  39.3004394  31.7532372  41.8706465  39.8173547  31.5104342
  40.3603506  39.7995329  31.4120984  55.0329971  49.4367027  15.2441943
  55.3599024  50.3059769  15.4760003  54.6826267  49.5406437  14.3595099
  33.3005762  32.6391435  32.3961830  32.7509832  33.4227872  32.3870873
  32.7918482  31.9842482  31.9181275  69.0568924  37.9146671  37.7683282
  69.3227482  37.2792792  37.1036220  69.5658207  37.6774502  38.5435390
  84.5599270  36.9584846  12.4049187  84.4772053  36.9413280  11.4514542
  83.9925480  37.6780200  12.6816475  68.3873749  53.0570316  42.1680546
  68.3372688  53.4214401  43.0517578  68.7235737  53.7749815  41.6316271
  26.7161798 100.3568328  26.0729527  26.4328145 101.1065263  25.5496049
  26.4165162  99.5933098  25.5795312  87.1173668   7.7558702  24.7249889
  86.7542458   6.8757260  24.6263814  87.8660202   7.7742761  24.1288233
  68.6876535  54.0340805  21.4621902  69.5768213  53.7227297  21.6315246
  68.2455873  53.9683008  22.3086429  78.8227698  78.2698815  86.6425336
  78.9139935  79.0651720  87.1673429  77.8855416  78.0763238  86.6619176
  54.2673111  25.7096457  56.7225838  54.8566055  25.9394956  56.0041618
  53.5421276  26.3296080  56.6452026  57.9258013  15.4261160   4.7556677
  58.8696861  15.3099716   4.8644394  57.5615835  15.2531111   5.6237942
  63.9360523  12.8643644  47.5866222  64.8508358  12.8457952  47.3054504
  63.4608650  13.2140923  46.8328857  43.1166553  42.4749231  27.0068550
  43.1548548  42.0538568  26.1480904  43.3029175  43.3970165  26.8299890
  62.1282959  17.6814234  43.6094046  62.4865389  18.2380617  44.3008184
  61.9400311  16.8499923  44.0447330   3.3923147  70.9048575  89.5866618
   4.1873835  70.7643407  90.1008132   2.8583239  70.1283341  89.7542852
  74.5862055  23.8276625  49.7404528  73.9052439  24.0547657  49.1072464
  74.2921448  23.0005574  50.1221037  31.7858028  31.5764260  41.4283323
  32.1132112  30.8501744  40.8976793  32.5747156  32.0108056  41.7526245
  32.7638196  94.9874461  27.7111363  33.2263946  95.7147599  27.2948837
  33.3402299  94.2336727  27.5854135  61.4063263  10.8099270  40.0204229
  61.1535120  10.6535208  39.1105580  61.9478798  11.5984643  39.9863672
  91.7401600  16.3195086   9.1902828  91.3134766  16.7490518   8.4488857
  91.4622021  16.8264353   9.9531722  67.3068285  32.6072145  27.9769397
  67.4378014  33.5511851  28.0663729  68.1836557  32.2341132  28.0675054
  88.4891891  33.2036281  27.6601791  87.6502609  32.9639673  28.0538726
  89.0702343  33.3518815  28.4062600  38.3963966  19.8212636  20.2617431
  38.7317443  19.0811753  20.7677507  37.4556017  19.8253572  20.4381490
  14.5243311  35.8158588  61.8053246  14.4974649  34.8729753  61.9680500
  13.9112043  35.9518099  61.0829496  62.9884481  42.8995228  41.3719034
  63.1770563  42.7996635  40.4387999  63.8377905  42.7941322  41.8005562
 100.8664223  65.6525438  84.6444625 101.4353940  66.0878413  84.0096248
 100.0002190  66.0281294  84.4867963  47.7934504  30.7568455  41.1304998
  47.0915937  30.7708430  41.7812157  48.2815838  29.9560189  41.3219070
  78.2085228  37.9001117  36.3306665  78.0197811  38.0404496  35.4028106
  77.3624802  38.0054998  36.7657924  21.3669395  32.8891134  44.2417860
  20.6886315  33.0695081  44.8926210  21.9906998  33.6084604  44.3402338
  56.2257051  22.3761344  40.3850794  56.9201517  22.2844791  39.7327161
  55.7602835  21.5401292  40.3585243  48.7783670  34.6366906  45.8869219
  49.7302151  34.5923305  45.7961130  48.4433508  34.1283560  45.1482821
  59.9621296  33.6995769  21.3651967  60.4966307  33.0231738  21.7811584
  60.5945683  34.2680144  20.9257269  59.6513367  34.3236208  43.3447456
  60.2141380  33.9656186  44.0312719  58.8746166  33.7643242  43.3558846
  58.8128901  16.9020271  40.6339073  59.3375731  17.6758456  40.4286098
  57.9850864  17.0453393  40.1751757 112.3548934  76.3958901  88.1126184
 112.2360942  77.3434752  88.1774468 111.4662167  76.0473865  88.0416885
  36.7479467   3.8153711  23.4176016  37.2255468   3.6049744  24.2200112
  37.1927238   4.5883238  23.0698252  48.6558390  14.7829080  28.8158274
  47.8986931  14.2145586  28.6746287  49.1073990  14.7943866  27.9719114
  57.3863173  21.9182777  11.4308810  58.0734587  21.3737440  11.8150032
  56.7902517  21.2946033  11.0161960  39.6876383  37.9066849  43.4251165
  38.7923121  37.5886202  43.5411215  40.2218628  37.3182416  43.9585686
 110.4150460  85.1995564  66.2605953 109.8191807  85.8785701  65.9441757
 111.0220811  85.6633735  66.8373203  96.4425322  97.5090950  90.2931887
  96.9570681  97.2957819  91.0716358  97.0187995  98.0668324  89.7706145
  63.2595491  14.5472658  42.8729200  62.9110384  14.3641686  42.0004272
  63.8951015  15.2494955  42.7344513  25.6079388   5.0168025  14.5063663
  26.1767387   5.7828212  14.4294596  26.1960053   4.3066666  14.7634995
  37.4215961   6.8808472  44.5817375  37.7510262   7.7795625  44.5859861
  37.9574299   6.4324278  43.9274931  19.0286492  93.9814056  18.3046854
  18.8672303  94.2514968  19.2086899  18.1860637  93.6430503  18.0017161
  60.4263878  11.0050404  28.8251138  60.9298182  11.6158330  28.2868552
  60.6650448  11.2262690  29.7252989  49.1189337  29.0592813  51.0342264
  48.4336138  29.2471528  51.6755295  49.5312309  29.9071741  50.8689356
  76.2083006   7.2014695  48.5768509  76.1562300   6.4024049  48.0524302
  75.3060293   7.3682606  48.8494682  15.7080697  94.1454435  34.1656160
  16.3898801  94.8172331  34.1575313  16.1312484  93.3793474  34.5532370
  44.9029064   0.2415150  37.6525140  44.0536261   0.4621197  37.2700381
  45.3002787  -0.3598686  37.0227003  34.3923259  32.6520538  42.6966333
  34.0142965  33.2868075  43.3052492  35.1308656  32.2734404  43.1735468
  30.9066463   9.0617812  16.5965474  30.6255412   8.5409230  17.3488224
  30.5915523   9.9455631  16.7859578  68.7330532  25.1044989  14.1369188
  69.1530085  24.9803972  13.2857633  68.1180859  24.3745565  14.2092776
  45.6816149  34.5368505  15.4794776  45.7779312  33.6664963  15.8660507
  45.7780266  35.1387286  16.2175035  53.2345009  42.3037195   3.6707693
  53.0054665  41.4377451   3.3333305  53.9145422  42.1345329   4.3228042
  20.0234985  93.5438121   4.0238631  20.7764386  94.1331578   4.0683648
  20.3059434  92.7585495   4.4927117  71.2535763  14.6942770  19.3976450
  71.6877651  15.0376570  20.1785445  70.5811691  14.1038752  19.7375393
   2.4102864  29.4522834  71.1515856   2.6899889  28.6553979  71.6021109
   1.5570587  29.2298889  70.7790565  99.5467256  14.7431397  23.8177586
  99.1062866  14.0571964  23.3160353  99.2665480  14.5964527  24.7212052
  53.3960485  54.7149944  17.3370087  54.3114185  54.9695826  17.4532759
  52.8971481  55.4890871  17.5979984  42.2060871  29.2843008  14.1138947
  42.1341753  28.9970088  15.0241280  42.3397064  28.4767365  13.6176932
  62.3521137  15.9373653  15.5885828  63.2444811  15.9997988  15.9291935
  62.4090862  16.2918329  14.7012615  47.1392870  56.8136358  32.6259160
  47.5670147  57.6500559  32.4424124  47.7515793  56.3521338  33.1989312
  83.6253497  91.9743221  92.3377591  84.3040559  92.4995964  92.7616370
  84.1090152  91.3341706  91.8157389  39.4827652   6.4132041  23.9552903
  40.2187967   5.8294916  24.1390634  39.1781712   6.1486107  23.0872798
  36.9795179 102.2376428  46.6382837  36.7326688 101.3443077  46.8775511
  37.9079389 102.2979960  46.8632936  54.2450762  45.0979710  10.0330544
  54.5933819  44.4090176  10.5989659  55.0191927  45.4908323   9.6297699
  70.3449774  18.1620955  45.5875349  70.3749323  17.8992772  44.6676111
  70.9341669  18.9145803  45.6409597  36.5304446  22.1093988  17.3100984
  35.8107162  21.7274261  17.8124154  36.6526055  22.9793382  17.6902449
  39.3768024   9.2506093   7.0523250  40.2352858   8.8803774   6.8469793
  39.5713115  10.0929630   7.4632251  38.4196042  98.0625123  32.1488523
  38.9390802  97.2587807  32.1687126  37.5924968  97.8235108  32.5671840
  41.6919756  34.8093796  24.1289735  41.2251854  35.2770209  23.4364057
  42.6118994  35.0364685  23.9933133  48.6231947   4.7542456  35.3612971
  48.8869476   5.0128609  34.4782424  48.1506538   3.9309013  35.2386498
  51.7408228  42.1572542  34.8000216  51.5216684  41.8335342  35.6737542
  52.0889616  43.0360985  34.9505663  56.1970282  45.3671169  60.5859041
  56.6416264  44.5780134  60.2762699  55.5569935  45.5652809  59.9022961
  40.0664091  15.4535329  47.4953079  40.9252787  15.7041562  47.8355360
  39.7370100  16.2451816  47.0698404  49.5988464  29.8203182  37.2929692
  49.7946692  30.1134157  36.4030361  48.7007952  30.1124310  37.4491835
  38.4256864  15.7537735  23.0148005  38.8839340  15.0750411  22.5192547
  38.7393713  16.5768635  22.6401567  33.1040406  38.0527139  27.2553515
  32.1944642  38.0260181  27.5523162  33.1807876  38.8875747  26.7934513
  41.4784098  15.3781188  40.3790951  40.6555510  15.6190205  39.9535346
  41.5722036  16.0084772  41.0932970  58.3192158  20.4009318  21.7319918
  57.7968168  19.8511517  22.3160052  57.8871632  20.3247571  20.8812523
  27.7595282  60.7233191  57.1286631  27.9408503  61.5693808  57.5379705
  28.0807376  60.0785589  57.7590132 106.1274521   7.1979171  19.1181839
 106.1815827   7.3862696  18.1812608 105.8342980   8.0200022  19.5112085
  63.1891605  82.1827643  79.1181398  64.1393396  82.1100181  79.2081309
  62.8684851  81.2882631  79.2333186   0.1701702  13.5247076  49.4745541
   0.2177520  12.8029990  48.8475752   1.0836695  13.7526739  49.6471310
  76.2680912   2.2036214  50.7390928  76.7715359   2.8290480  51.2602568
  76.9284964   1.6331229  50.3458643 102.2270749 100.0968588  61.7137146
 101.3401911  99.7421152  61.7755508 102.4789069 100.2715964  62.6205111
  48.5693645  12.4725091  78.1590939  47.6799393  12.8180695  78.2348728
  48.8590002  12.3561168  79.0639687  38.6910510  22.4501777  28.1782365
  37.9078245  22.0152807  28.5153604  38.7303281  23.2779503  28.6572814
  41.2774849  40.6037760  69.7523880  41.1876583  41.4758348  69.3680954
  41.8972921  40.7219172  70.4721880  37.3380280  38.2573962  40.5114698
  38.0332589  38.3667827  39.8626876  36.5275049  38.3075643  40.0047493
  47.5264120  33.8344002  30.6823564  46.7621565  34.3613791  30.9156728
  48.2016563  34.1027522  31.3054681  61.2322521  31.3049054  46.8066883
  61.8283224  30.7779241  47.3388767  61.0845327  30.7790446  46.0206318
  35.2888894  29.0197468  20.4608727  35.1073623  29.7466707  19.8651719
  34.6528459  29.1253042  21.1683607  38.0445623  21.1065745  35.3372669
  38.8277578  20.5569911  35.3655267  38.3813858  22.0016360  35.2966571
  51.9709539  35.6143761  21.0751700  51.9649982  35.4550791  22.0190024
  52.6117277  34.9919891  20.7312632  49.5782136 101.9770924  24.0977955
  49.4641732 101.4131666  23.3328032  48.7545442 102.4602095  24.1641355
  42.0365620  33.4196901  33.8160062  42.7810812  32.8262448  33.9147305
  42.2942543  34.2086315  34.2928720  41.0179138  14.0185654  15.5635750
  41.3170004  14.2459083  16.4439702  41.7242527  13.4836829  15.2013338
  51.8559504  32.5055170  32.1601295  51.7563581  33.2743454  31.5986896
  51.7132521  32.8364110  33.0469108  38.9798617  41.4801264  24.3919635
  39.6824217  41.3335943  23.7585831  38.1771827  41.2829971  23.9091825
  23.4848118  12.8781700  44.9207830  23.7161756  12.7817082  45.8445787
  23.9531517  12.1684754  44.4812107  40.6790829  21.7342305  33.5176873
  39.8483348  22.1961164  33.4047556  41.0571766  21.7030406  32.6388788
  40.6392288  21.9335628  20.8925080  39.8674273  22.0874357  20.3476429
  40.2845049  21.6616392  21.7389488  12.5030660 106.2498307  30.1668954
  13.1353854 106.6106270  29.5454264  12.9128217 105.4457296  30.4858851
  18.4445333  71.8454313  19.6877873  17.5653398  71.6864061  19.3443298
  18.9057660  71.0167360  19.5583045  57.6160383  27.7819180  29.7678399
  58.2339239  27.4489784  29.1169953  57.8934765  28.6850548  29.9214768
  48.6074924  41.7465305  22.7413130  48.9560175  42.1243191  21.9338226
  48.5263586  42.4903965  23.3382320  73.6327314  25.9769535  46.0906506
  72.9740238  26.4662933  45.5978203  74.1036558  25.4735279  45.4265547
  56.6829872  46.5616179  37.3245072  56.7483664  46.9573784  36.4554095
  56.2033510  47.2056389  37.8454852  32.4340105  35.4720211  53.1836796
  33.3700871  35.6686020  53.2203960  32.3823142  34.5262051  53.3214903
  63.2405758  20.7897568  18.9220214  63.6320496  21.5872121  18.5655904
  62.4541855  21.0915399  19.3767190  37.7820873   8.4837931  40.1329947
  37.1168876   8.0005461  39.6428800  38.2113409   7.8199524  40.6727076
  48.1418324  31.3059664  20.2407908  47.8925133  30.5163145  19.7606659
  49.0422106  31.1416245  20.5210471  61.0987377  41.2527323  34.7339249
  61.5760946  41.5788078  33.9710093  61.7697811  40.8408976  35.2782822
  38.5445952  40.0137520  50.6616831  39.1163659  40.5641460  50.1265430
  38.1186175  40.6245136  51.2631321   3.5307696  28.8021064  74.5677233
   3.7666163  28.8305116  75.4949808   3.1500798  27.9326344  74.4439411
  50.2635622  30.0716805  74.3263674  50.2352953  30.5548453  75.1521873
  51.0482788  30.3970456  73.8852453  49.9782944   4.5050853  47.7984142
  49.2370415   4.0403870  47.4100494  50.2643776   5.1123661  47.1160698
  36.2270832  62.0852661  52.5011349  36.3755512  62.1484852  51.5576363
  35.3148150  62.3503399  52.6183319  44.5636749  30.8832908  49.9602652
  43.8156080  31.1373115  50.5007267  44.8446941  31.6973376  49.5424271
  30.8654952  55.0468159  34.9678373  29.9134660  55.1452923  34.9810410
  31.0291481  54.3918467  34.2892647  58.4094381 100.3911263  43.3292294
  58.4423207  99.5752091  43.8286591  58.1659936 100.1204277  42.4439716
  15.9019517  91.7246342   5.2229315  16.4704894  92.4748684   5.0492948
  15.5525159  91.4851916   4.3645644  53.0643940   9.6445906  33.8548946
  52.8729725  10.5703986  33.7049961  52.2053766   9.2375463  33.9673066
  42.0679760  68.2059383  26.9502163  42.1324158  67.8523350  27.8373718
  41.7482996  67.4736595  26.4231443 108.6517998  91.4076322  72.4505508
 109.3608758  91.4201396  71.8076790 108.1997201  90.5788701  72.2924126
  42.7993393  15.8569753   4.3009543  42.6406479  15.9772038   5.2372205
  43.2817507  15.0322080   4.2437634  23.5825348  26.2730312  25.8406544
  23.7190604  25.3456020  26.0342169  23.1995964  26.6310143  26.6415524
  35.4429936  32.4690938  21.5934157  35.0736856  32.1671891  20.7635379
  36.0249209  31.7606091  21.8684506  51.6928291  31.0617542  47.9574776
  50.8410215  30.9299374  47.5412035  52.2740364  30.4433584  47.5147390
  69.9433517  48.3663750  23.3518863  70.0614595  49.2782736  23.0859399
  69.0873528  48.1230211  22.9993606  39.8886943   8.8545531  31.8644762
  39.1520119   9.4586611  31.7718148  40.6529522   9.4222552  31.9637656
  24.3088269  33.8315201  33.6120033  23.7960839  33.2908773  34.2128634
  24.5889163  34.5782351  34.1413426  15.6791877 100.8447403  49.5363474
  16.2510442 100.8485538  48.7687540  14.9540805 101.4222295  49.2976856
  61.6180325  22.3287988  27.0495319  62.1824884  22.6297951  26.3374805
  60.7701159  22.1731472  26.6335464  29.2314410  56.2119913  62.4494696
  28.9124489  55.3393269  62.6795530  28.8398385  56.7904043  63.1039286
 101.1761237  62.4881227   1.2652886 101.3369323  62.9465027   0.4405129
 100.4104806  62.9258997   1.6372788  73.7002134  16.2765694  45.7489967
  74.2307091  15.5359209  45.4553223  72.8250980  16.0952353  45.4061747
  42.9379034  49.6626472  20.8453989  43.6698294  50.0816011  21.2981653
  43.2967186  48.8352585  20.5245924  27.2665524  29.5749688  60.3139353
  27.9240441  29.5375872  59.6192837  26.7595053  28.7701225  60.2073574
  42.9395866  16.5133512  12.7574277  42.8777122  17.0328665  11.9558620
  42.0346546  16.4266598  13.0571115   3.3666753  92.6980866  37.1930647
   4.2806720  92.4876452  37.3842716   3.1348561  93.3664990  37.8378272
  41.4003944  48.7531281  34.7797990  41.3874149  48.0216646  34.1625261
  42.3066330  49.0610313  34.7672963  43.1507063  26.9890499  28.7239695
  44.0894842  26.8471360  28.6023593  42.8565025  27.3681045  27.8957224
  61.7260838  13.7700939  66.5000296  61.4131212  14.4547415  67.0912552
  62.6797867  13.8091397  66.5718794  79.9479866  91.9756699  20.8563757
  79.5477200  92.5172997  21.5365672  79.2150831  91.4968586  20.4693127
  36.2682366   7.2584152  22.9357958  36.7195129   7.8274304  23.5593367
  36.8348360   7.2515339  22.1643353  26.6509914  50.4369259  29.1425729
  26.8834925  50.6171894  30.0534415  25.9593248  51.0676718  28.9426017
  66.6390324  73.5849428   7.9539859  65.9203863  72.9887295   8.1644797
  66.7736149  73.4749317   7.0127010  41.2690973  55.1972628  18.4056115
  41.1366796  55.9613132  17.8444314  41.0852146  55.5146933  19.2897236
   3.3198872  52.0128727  34.7045326   4.1736540  52.2636938  35.0572395
   2.7720672  51.8765450  35.4775405  22.2027349  28.7774062  47.5825977
  22.1172595  29.1008234  48.4794426  22.6645589  29.4760275  47.1190453
  72.4685097   6.4333749  54.4418526  73.3967638   6.6662407  54.4232798
  72.4562025   5.4866809  54.3009567  49.5549965  20.0082421  45.5325270
  49.1036940  19.4331443  46.1504412  50.4063606  19.5924687  45.3963423
  42.0497704  17.5404847   2.4410138  42.1941280  16.8458080   3.0835217
  41.7842102  17.0793974   1.6453321  30.2567601  33.2019806  39.7934198
  30.8776069  33.9173675  39.6555662  30.7266331  32.5809908  40.3500366
  12.3915195 100.9127206   8.9423317  12.5333594 100.3960020   9.7354984
  11.9575881 100.3101338   8.3383232  59.6367693  42.1841812  78.0608654
  59.5128536  43.0983829  77.8057003  60.3394985  42.2099113  78.7102795
  89.8605251  37.3675799  32.2765923  89.0392494  37.8573155  32.2330332
  89.9044609  37.0534492  33.1797123  21.6448450  11.2510312  49.6327734
  20.8343577  10.7451308  49.6911383  21.6140008  11.8405461  50.3862667
  35.1059008  49.1391802  32.0063543  35.1658750  48.2169104  31.7572355
  36.0142922  49.4398212  32.0323181  29.1971850   8.3144248  49.6504211
  29.1799879   7.5306541  50.1996374  28.3165455   8.6812371  49.7288847
  92.1873283  29.7774458   3.1977385  92.4080849  29.4029331   2.3449536
  92.7545357  30.5444503   3.2765588  26.6836810   1.9035539  19.7927117
  26.2919617   1.0708661  20.0561857  27.6042104   1.8250683  20.0431132
  18.2268285  93.0099071  42.2735023  18.3580970  92.9666412  41.3263369
  17.8079461  93.8582433  42.4187469  41.2900066  44.0418673  25.4518771
  41.9299746  43.8402510  24.7692180  40.9315681  43.1906080  25.7030964
  47.6326990   5.3764313  16.4211893  46.8192482   4.8788723  16.3377237
  48.2317734   4.7820190  16.8728721  43.2337046  33.3179069  28.7125754
  42.7246475  32.5103331  28.7826967  42.5924826  33.9846277  28.4665084
  46.9920015   4.0773809  13.4591079  47.4233246   3.3355403  13.8832128
  47.2279882   3.9953768  12.5350857  63.5855484  35.3646755  54.8877335
  63.7006855  34.4191098  54.9819660  63.8496017  35.7237053  55.7348490
  61.9954205   0.5239696  33.8157177  61.4007902  -0.1921934  34.0387774
  61.6793537   0.8432653  32.9705024  49.8664761  39.0044951  34.7009635
  48.9932346  38.6212778  34.7835803  49.7323608  39.7959518  34.1795802
  58.7344933  24.7197533  33.1193423  57.9073334  25.0964355  32.8191090
  58.9865685  25.2609825  33.8675141  31.9598103  22.4052668  30.5538321
  32.1587372  21.4904237  30.7531428  31.9707441  22.4499464  29.5977378
  39.8879194  11.7909074  25.5243492  39.4355679  12.5941658  25.2666903
  39.3826246  11.4589882  26.2664676  67.3956966  22.0602536  58.8662481
  66.9067430  21.6227555  59.5632076  67.3860216  22.9855013  59.1113138
  69.1840219  36.8220115   8.8061982  69.3982887  37.4065733   9.5332533
  69.7507668  37.1114135   8.0911630  34.5166421  48.2779551  44.2090845
  35.0548649  48.3512592  44.9972296  35.0422692  48.6864138  43.5212564
  33.8174462  39.0578270  35.6212521  33.4030986  39.1121244  34.7600889
  34.7521091  39.1645813  35.4444933  39.4836116  12.8593493  32.3220611
  38.9766955  12.3965156  31.6549373  39.1172743  13.7436330  32.3305845
  89.4360205  65.3882664  90.6216291  89.1503140  65.5384546  89.7204921
  89.8820016  64.5417767  90.5935626  22.9237365  97.7080530  41.1800575
  23.3112954  97.0446832  40.6091213  22.2827720  97.2279406  41.7043591
  62.6439285   1.4380339  26.2165499  61.8226242   1.4406916  26.7081618
  62.9756975   2.3320453  26.2996387  68.8783693   0.4284132  10.4474235
  68.7966251   1.3782829  10.5328500  67.9779863   0.1182701  10.3506827
  51.6746616  29.5613265  60.3264475  51.8117571  30.3645563  59.8241949
  50.9495926  29.1218591  59.8821735  68.7874508  20.9229875   9.7585821
  69.6177387  20.4467773   9.7675139  68.9911509  21.7514324   9.3245113
  56.4587927  15.8778679  65.0402927  56.7324734  15.0969124  64.5592117
  55.6526613  15.6152296  65.4845953  39.9918890   4.3888670  27.4332428
  39.6165228   4.0457019  26.6223383  39.3029976   4.9427879  27.8004384
  89.1244601  63.0590105  55.0547075  90.0184320  62.7317810  55.1545382
  89.1949485  64.0004253  55.2128124  33.1928682  13.3646929  22.0193744
  33.0332518  14.1345155  21.4733648  33.5915303  13.7146568  22.8161335
  69.3056440  13.4375632   4.6161130  69.7478485  13.0860877   5.3888696
  69.4549608  12.7812898   3.9354947  51.5666437  34.6614790  45.1027489
  52.4136448  35.0637054  45.2951908  51.1114550  35.3080893  44.5633745
  77.9861641  18.2734179   8.6009127  78.4223080  17.5520742   9.0544212
  77.9051495  17.9731250   7.6956546  30.5263186  73.6503077  30.6953096
  30.7636166  72.7644014  30.9693313  30.6750584  73.6564684  29.7497582
  70.5613852  11.4799488  12.3527586  70.7991791  11.2841916  11.4464664
  69.9754143  10.7667041  12.6060367  88.7479973  29.0603900  49.1759539
  89.0126514  29.9310112  49.4729567  87.9178429  29.2043686  48.7217140
  68.0048370  27.9162860  11.3490295  67.9232025  28.8641477  11.4545035
  68.9484310  27.7554750  11.3509095  22.0418763  43.4701347  83.1023026
  21.3297844  43.0139494  83.5506916  21.8232250  43.4005928  82.1730042
  64.8675632  24.9159861  30.7529688  64.0925598  25.0135684  31.3062167
  64.6239805  24.2444873  30.1157975  30.5058574  96.7659712  10.9594250
  29.9114465  96.1368251  10.5506647  30.9854936  96.2540842  11.6106951
  13.3482455  77.9778498  77.6254797  13.1491183  77.0890229  77.3312533
  12.9841612  78.5429280  76.9440377   9.1089123  36.8616891  65.6574821
   8.4863758  36.3740301  65.1181602   8.8779086  36.6314507  66.5574026
  16.6704272 101.8014420  35.4885745  17.4001216 101.1821539  35.5046916
  16.8992948 102.4233360  34.7978497   9.3490886  98.8360471  43.9761591
  10.1665067  98.5395265  43.5759926   8.7203168  98.1417311  43.7791729
  19.0470445  21.0825896  23.0296803  18.9458907  22.0325327  23.0897593
  18.6957431  20.7515621  23.8562632  41.0934258  17.2607899  69.3552923
  41.0420465  16.9155180  70.2465725  41.0983610  18.2114792  69.4666386
  37.6546335  19.6009529  47.7332497  37.6660132  19.5952070  48.6903620
  37.2905183  20.4557729  47.5031757  31.4391637  41.2316704  70.5947113
  30.7639980  40.8986664  71.1858892  31.3925529  42.1830177  70.6895590
  48.6672020  46.7412567  22.4595737  49.1693783  46.5184498  23.2434154
  47.7858639  46.4134645  22.6385570  85.5104923  25.3787327  29.7271466
  86.0090256  24.7226000  30.2141571  86.1275291  25.7143116  29.0768576
  71.7910624  25.5170989  50.5449295  71.8951225  24.8279023  51.2009859
  71.9997549  25.0902581  49.7139740  81.1969376  60.1690817  14.0814543
  81.4616299  60.3090668  14.9906147  81.8531513  59.5667744  13.7309706
  76.1544085  23.8306332  31.0873461  76.6683865  24.6377635  31.1118364
  76.5465450  23.2764006  31.7620969  33.5936117  53.4465408  11.2927413
  34.4548535  53.0306435  11.3318133  33.7644911  54.3693352  11.4810872
  58.4534740  41.4631605  10.2494383  57.9527807  41.1382866   9.5011127
  59.2329216  40.9081554  10.2752280  59.1500187  48.5017300  37.0929289
  58.6925554  47.7095509  37.3747277  58.5901213  49.2196178  37.3885393
  80.3038406  72.9571915  18.6213911  80.6211567  72.2071123  19.1243076
  80.8450127  73.6895514  18.9163530  82.9219723   4.8316509  22.4996781
  82.3437977   4.8451394  23.2624078  83.5673141   4.1537708  22.7002859
  60.5756664  62.2119474   3.7486792  60.3102160  63.0776072   4.0591556
  59.8474741  61.6382790   3.9871591 107.2131252  29.5354962  23.1924796
 108.0679893  29.8508239  22.8991985 106.8245888  29.1373158  22.4135566
  74.9142122  40.6598711  29.1226459  75.2317524  39.9778318  29.7144413
  75.0166321  41.4729166  29.6173191  56.5081358  58.8034248  14.2816007
  55.6820583  59.2826509  14.3461549  56.2538958  57.9247808  13.9994979
  18.8125800 106.1545376  32.1774268  18.8598537 106.6320961  31.3492155
  17.9311179 106.3315131  32.5059700  57.8584814  42.6727295  37.0935965
  57.3048592  42.5634480  36.3204265  58.3480310  41.8525219  37.1555090
  65.0863600  28.1708741  48.1273413  65.5498314  27.7940989  47.3793697
  65.3647900  27.6401711  48.8737106  67.6117420  29.8923087  30.3584218
  67.8418541  30.2001739  29.4817805  66.9218016  29.2452669  30.2116060
  77.4021435  34.4480419  16.7183256  77.8163576  35.2743578  16.4696097
  77.1733332  34.0347171  15.8858359  57.0908737  51.8920660   4.8763162
  56.3503218  51.3813114   5.2033448  57.5537109  52.1748495   5.6650156
  59.4219732  26.1311698  25.3879857  59.9808979  26.8085098  25.0071359
  59.6090460  25.3476286  24.8709750  79.5758247  29.0604901  13.9139259
  79.3986511  28.2012486  13.5311174  80.4201508  28.9576077  14.3529737
 101.3416767   3.0327898  32.7044892 100.8949375   2.5244629  32.0275402
 101.8076611   3.7160534  32.2225738  77.0505714  25.1431751  11.7183793
  76.7047119  24.3466544  11.3156796  77.9014444  24.8830795  12.0713675
  64.1741800  44.7845411  43.6869812  64.4738483  43.9343071  43.3652067
  63.3815145  44.5861292  44.1855240  90.2803040  31.5021658  16.7963552
  90.6414032  30.8477545  16.1983728  90.2123642  32.2975922  16.2682331
 105.0426006  75.3450394  13.8990355 104.3221569  75.5601835  13.3066642
 104.8307228  74.4708109  14.2262352  53.6578560  36.8903923  31.5180922
  53.6129332  37.4649310  32.2823691  53.8038349  37.4833274  30.7809687
  66.5820885   7.8028840  49.3917847  66.2008905   7.0545328  49.8510075
  66.2117338   8.5679734  49.8319054  85.8176041  28.0352092   7.6373601
  86.6187096  28.1530976   8.1478173  86.0856915  27.4986005   6.8914294
  78.2795954  22.4251986  27.6360703  77.7168274  22.6537681  26.8962836
  79.0196133  21.9644690  27.2406793  76.0961962  26.8078184  13.6849701
  76.3963413  26.2428832  12.9729342  75.1428080  26.8143201  13.5999095
  34.2798066  18.2925546  67.0189905  33.9754105  17.9804075  66.1668491
  35.1918507  18.0060494  67.0671892  61.6939831  52.9292488  23.0263734
  62.0787954  52.3061895  23.6427689  60.8105087  52.5960684  22.8692007
  36.8060088  31.1949706  35.5669308  36.7420530  30.6938291  36.3799500
  37.2518420  30.6067610  34.9574447  83.8936234  30.3723025  46.2998533
  83.0871582  29.8676801  46.4056873  83.5985947  31.2405825  46.0254765
  34.1232300  51.8529272  27.9950738  33.8192058  51.6999578  27.1004224
  33.5381913  52.5303316  28.3343148  66.3659620  38.8030124  36.9003677
  65.7533836  38.0769300  36.7829537  67.1263075  38.4082413  37.3272896
  86.1052322   5.2882451  23.9740586  85.1918125   5.2519524  24.2579198
  86.5078735   4.5116937  24.3627524  39.4209599  53.1524611  31.8642235
  39.0099883  53.8437033  32.3833752  39.8900652  52.6183033  32.5051951
  81.1215687  19.4824398  30.4915833  81.5758514  19.7531569  31.2894392
  81.7746449  19.5814037  29.7988129  18.4652232  94.6058107  60.0842381
  19.2883109  94.8639203  59.6693468  18.7074470  93.8904822  60.6723404
  41.2554264  60.1533794  28.8387299  41.0502195  59.7070742  29.6602750
  42.1825075  59.9672079  28.6900949  90.0766563  19.5314050  37.4998760
  90.7165813  19.2238569  38.1418633  90.2267456  18.9824939  36.7301989
  93.3577061  10.9163868   7.6256031  93.0022717  11.8008661   7.5384706
  93.2434177  10.5259025   6.7591780  74.3302107  41.8781328  20.4449844
  73.6522484  41.3605499  20.0105810  75.0853395  41.8235397  19.8592901
  27.1278262  35.4250956  21.6775179  27.5947571  34.9608612  22.3722792
  27.3607445  36.3446689  21.8054461 101.2897396  39.4395161  39.2281175
 100.8789921  39.7804952  38.4336042 102.2153187  39.3517256  39.0004802
  76.4825010  56.2942219   5.1859641  77.0849657  56.4673758   5.9093463
  75.6510639  56.0849524   5.6115860  68.1984520  28.0998993  51.5851784
  69.0537691  28.2482433  51.1818647  68.2107735  27.1774507  51.8404627
  42.9092073  60.9690237  33.5578489  42.1213865  60.4598475  33.7483835
  43.2644320  60.5720711  32.7625656  28.9104843  33.8544989  27.1588326
  29.1991258  33.4435701  27.9737258  27.9570436  33.7709355  27.1730733
  87.9009628  40.0079489  16.4051282  87.5789833  40.5095291  17.1541119
  88.6277771  39.4933558  16.7560935  85.7062289  81.5544217  84.7315467
  86.2180516  81.0433572  84.1045815  85.3994414  80.9114688  85.3708643
   5.1235187  26.8156910  49.9200916   4.7161177  25.9642124  50.0789642
   5.9317905  26.6105294  49.4501591  88.7902260   5.5387437  44.6881390
  89.3367958   6.1585319  45.1712036  88.2475281   5.1245147  45.3590584
   2.1125077  79.3264049  85.0131613   1.9165133  79.6888345  85.8771432
   2.1771334  80.0914567  84.4415385  65.9578896  46.5082407  42.8328228
  65.2201509  45.9791565  43.1362200  66.6162539  46.4186668  43.5218525
  38.9445376  63.5251904  15.3630292  39.2428923  64.0180588  16.1274230
  39.7042990  63.0046511  15.1021922  71.6421843  46.4913273  22.4679875
  70.9928942  47.0109797  22.9419303  71.8455601  47.0125818  21.6913509
  77.1388197  33.6723471  27.6629591  76.9193172  34.5636463  27.3916054
  77.5609350  33.7786245  28.5154605  73.8960886  -0.0116982  43.7105894
  74.1273212   0.8298334  44.1037655  74.5352316  -0.6273586  44.0693235
  89.8833370  24.0393591   8.9427936  89.3782234  24.4391775   9.6507764
  90.7705021  24.3791008   9.0600568  64.3421078  22.1277595  54.7467613
  63.7299013  21.4502406  55.0338173  63.8175344  22.7051187  54.1920424
  51.0310364  46.6628695  35.2515364  51.4379978  45.7964897  35.2518868
  51.6627121  47.2243881  35.7008862  68.8545179  36.9292569  40.4631281
  68.8086557  37.8412557  40.7501602  69.7277403  36.8420935  40.0808716
  49.8104048  36.8419838  25.8002496  49.2418718  36.0805964  25.9155536
  49.3443966  37.3962617  25.1742744  42.0466280  64.1319942  35.9729385
  41.8933439  63.5422850  36.7111659  42.7913904  63.7479591  35.5102515
  82.3275471   8.8668263  16.9671476  82.4623108   7.9195994  16.9383073
  82.2847462   9.1307551  16.0480487  83.6548901  30.2471137  17.6238346
  83.6296940  30.6557107  18.4890771  83.1826591  30.8570504  17.0570827
  79.3025827  45.9243441  23.4606075  80.2029514  46.1421204  23.7017369
  78.8839579  46.7714882  23.3078527  50.3991413  50.7523108  43.1018019
  51.1872339  50.9316301  42.5889730  50.5174541  51.2563324  43.9069080
  63.5475159  29.9311757  31.1320329  63.6338902  29.5799422  30.2458000
  63.1333113  30.7856846  31.0116911  23.2954144  23.3087063  19.6326041
  22.8866243  23.0667472  20.4636145  23.2316995  22.5189996  19.0954471
  15.0985907  67.9913169  92.1933588  14.7936724  68.4681194  91.4214035
  14.5341109  67.2194832  92.2365863  43.2289219  37.8706646  66.0889053
  42.5836802  37.2753644  65.7074451  42.7062082  38.5619068  66.4953423
   3.2725476  96.3396025  46.1985922   2.5810956  96.9495243  45.9414434
   4.0373563  96.8947888  46.3504696  62.1425486  39.8575282  20.3168011
  61.4679241  39.7421408  19.6476233  61.6851377  40.2702713  21.0493660
  62.7894926   6.4425200  61.0618067  63.3404779   6.7485619  61.7822123
  63.1258106   6.9007850  60.2916670  55.6420135  39.9669909  21.5122247
  56.1132956  39.5760036  20.7765269  55.5215979  39.2458057  22.1299839
  79.4225979  16.3006318  56.4023829  79.6059752  15.8077610  57.2021818
  78.5869026  16.7344141  56.5746546  71.1568737  37.0735765  39.2772245
  71.7346144  36.5321207  39.8150611  71.7510509  37.5921011  38.7347126
 110.7835484  26.3780260   2.2417432 110.5217361  27.2894883   2.1116441
 110.0564861  25.9867787   2.7260363  58.0208826  63.6913157  16.5497172
  58.8459921  64.1028547  16.8067372  58.0571985  63.6584425  15.5937719
  79.0444469  11.9397342  42.5547791  79.0161991  12.7787554  42.0949125
  79.9555254  11.8504179  42.8344011  45.4593182  39.5086503  35.3247929
  45.8764982  39.0782952  34.5784783  46.0502195  39.3410349  36.0589409
  72.0844507  35.5667901  34.4870925  71.6863298  34.8759246  33.9575315
  72.6608467  36.0315037  33.8804269  86.0889053  37.7475190  17.0308673
  85.2000141  38.0333757  17.2415519  86.5385628  38.5464978  16.7557859
  43.7054539  52.8771114  28.4702587  44.5171833  52.6454449  28.9215469
  43.0128765  52.5094461  29.0192461  39.0568829  31.7926168  17.6706541
  38.9376140  31.1710286  18.3887315  39.9860859  32.0201898  17.7027142
  28.8643098  30.2715707  24.9543071  28.5262799  30.1189041  25.8367252
  29.6234584  30.8400702  25.0836611  84.6153259   2.1269074   3.0148298
  84.6301365   2.2284833   2.0631498  85.5382538   2.0963739   3.2668340
  91.6173553  74.8480368  21.5861702  91.6173840  74.5244646  20.6853199
  90.9295940  75.5136061  21.6015720  57.2724676  51.7202711  27.3674488
  56.8676376  51.8107367  26.5048003  58.0654335  51.2085724  27.2074223
  83.8278008  42.8591871   5.5476594  84.4120598  42.2977686   5.0380665
  84.3383980  43.0962181   6.3218266  74.1823625 102.5861234  30.3870702
  74.6387147 101.8293745  30.7549143  73.2753610 102.2955958  30.2913618
  63.3876371  29.3181181  28.2742834  63.9650393  30.0669336  28.1255794
  63.2393599  28.9530540  27.4019456   2.7911280  91.8442433  86.6535944
   2.6110266  91.9009369  87.5919873   2.6482104  90.9227675  86.4375234
  79.7204208  33.8360834  21.5466070  79.4119167  34.3529868  20.8023834
  80.6724072  33.9340663  21.5280890  76.3918686  83.6484337  34.1092563
  76.5669680  82.8229141  34.5610070  77.2323608  83.8922119  33.7214637
  33.4467101   4.8360619  63.7535191  33.1615472   4.2374068  63.0632114
  34.3864298   4.9421003  63.6054802  34.3162155  30.5625749  47.4543476
  35.1710248  30.3369689  47.8212738  33.7799740  29.7830868  47.5995159
  57.2858953  29.9179435  22.9066205  56.4231396  30.3308845  22.9435635
  57.2037506  29.1415858  23.4604740  49.5504522  34.9501634  32.0988035
  49.7008038  35.8949375  32.1308947  50.1508284  34.5897913  32.7514195
  71.2149096  38.9027262  10.4976916  71.6873074  38.2873225   9.9370199
  71.6157722  39.7519326  10.3122377  86.6299149 103.0063217  75.4900098
  86.5120503 103.2105845  76.4177049  87.5496718 103.2060927  75.3157497
  65.7014322  37.2405791  23.8524604  65.2489519  36.3971138  23.8449335
  65.0042248  37.8853393  23.9725256  22.1971321  42.1091366  29.3441653
  21.4879251  41.4932013  29.5282388  22.5711679  42.3072481  30.2026987
  80.7192802  23.3635712  31.6710377  80.5494404  24.3049622  31.6368294
  81.3196945  23.2551646  32.4085903  68.2540226  25.3824735  70.6434679
  67.9449511  24.5032430  70.8617783  67.7130508  25.6488085  69.9000645
  64.2898607  48.0831814  29.4461370  64.5778847  47.7592993  30.2995825
  63.6472225  47.4386501  29.1497874  58.9469147  53.7223101   1.5283473
  58.5394287  53.2509518   2.2549890  58.7475395  54.6429682   1.6982472
  57.6475906  32.9960728  22.6255774  58.4606314  33.3853364  22.3035884
  57.6802349  32.0885706  22.3229098  39.2424703  50.8240318  14.7625446
  39.4240546  51.7049313  15.0900722  40.1063633  50.4272795  14.6507084
  80.6421757  49.2564535  37.5664043  81.2159061  49.1651583  36.8056655
  79.8514557  48.7717581  37.3295975  67.7405405  30.5519009  11.7586160
  66.8752909  30.7735872  11.4144850  67.7830696  30.9972954  12.6048112
  82.3328304  46.1908579  24.0146136  82.5327969  45.2552414  23.9851403
  83.0769444  46.6085958  23.5809994  11.5219069  72.7413893  51.6271830
  12.3686504  72.2957420  51.6528034  11.3393331  72.8553200  50.6944895
  76.6849804  22.3672223  11.1985624  75.7806683  22.3413372  11.5112698
  76.6813707  21.8245649  10.4100573  68.9933920  17.0448005  36.3858676
  68.2354307  16.5315235  36.6656423  69.7489929  16.5240085  36.6580343
  32.1655440  40.1794481  38.0667400  31.8768597  39.3289304  37.7358174
  32.5131416  39.9917841  38.9386296  23.6714553 103.1287447  35.2551889
  24.4464921 102.6895807  34.9049258  22.9445647 102.7789060  34.7399449
  68.0694771  11.2006414  47.9479361  68.4991550  10.7525647  47.2193480
  67.4203444  11.7673969  47.5312281  83.2929993  68.5690832  16.4834309
  83.5820866  68.9084482  15.6363833  83.4650517  69.2820740  17.0984674
   4.1615485  80.2477639  75.1219428   4.3460463  79.5900219  75.7924402
   4.2079686  79.7669452  74.2955709  76.0474920  81.2721825  23.9974689
  76.0070133  82.2222805  24.1066074  76.7878485  81.1301899  23.4076047
  -0.0974752 101.0584372  85.4426885   0.8542012 100.9559458  85.4488904
  -0.4194977 100.3379839  85.9844321  44.9777985  47.2508764  34.4411349
  44.5537424  46.3969707  34.5263195  45.9030914  47.0463753  34.3060541
  66.5216112  48.1969404  25.4055929  66.9213867  48.2654762  26.2726092
  67.0564461  48.7637138  24.8497581  78.4887028  47.7107430  36.6274691
  77.8728199  48.3395290  36.2512374  78.0218601  46.8754101  36.6049790
  77.3727322  48.0982494  23.8409615  77.3573065  49.0072536  23.5414505
  76.8241835  47.6294899  23.2120037  75.0766087  32.5764322  35.7505417
  75.8659458  32.0617104  35.5824900  74.4764328  31.9630313  36.1745238
  54.8250675  38.8141632  11.5177286  54.1341591  39.3915248  11.1928713
  54.5312595  38.5572696  12.3917508  53.1990671  49.1756392   4.1004375
  52.2643328  48.9803553   4.1665277  53.2461882  49.9217987   3.5027269
 104.7707364  97.2435873  87.8323075 104.0559003  96.6070145  87.8279972
 104.3886611  98.0353468  87.4536646  76.3427305  10.5380332  46.8141079
  75.7572031  10.2451038  46.1158371  77.1796322  10.1172709  46.6171694
  76.8370390  40.7182407   3.1786409  76.7218208  41.5157270   3.6953351
  76.9741106  41.0301304   2.2841197  76.9658089  68.7081242  45.3294182
  76.6698885  69.6184301  45.3275919  76.2073755  68.2103348  45.6347227
  59.8038054  35.5076289  31.5459061  60.3870106  36.1790299  31.8999147
  60.1295137  35.3505421  30.6596375  56.5701103  35.4749489  36.0750723
  55.7120180  35.1299858  35.8282804  56.9627142  35.7545805  35.2480865
  50.1304913  22.5871778  15.3187704  50.5030727  22.0471025  16.0157168
  50.5562353  22.2750092  14.5203185  20.5489538  86.4341205  69.1266263
  19.9979399  86.5799707  68.3576358  20.0275515  85.8621853  69.6898878
  76.6924381  14.4309926  52.2691965  76.5406895  15.0773871  51.5797234
  75.8154345  14.1762459  52.5559044  63.0651236   6.9185108  21.7292070
  62.3854876   7.0352566  21.0653591  62.6927567   6.2870908  22.3447418
  64.0742302  33.9297986  37.2668743  63.7924862  33.9911771  36.3541389
  63.7626886  33.0723286  37.5565600  36.2150121   4.6611971  18.4692061
  36.4730477   4.4170263  19.3580425  36.0612416   3.8265103  18.0266178
  36.6909194  36.0575485  23.6642957  36.0023618  36.6472244  23.9715457
  37.5041556  36.5386987  23.8171887 111.1812303   7.5043695  88.8675121
 111.9664881   7.4774473  88.3208144 110.7932494   6.6345041  88.7724194
  76.0996580  15.9857595  34.5855546  77.0053720  15.8766043  34.2957234
  75.5759811  15.8252335  33.8005543  64.3812466  38.0431461  19.3433213
  63.7554598  38.3665824  19.9914026  64.2442799  38.6020303  18.5783911
  51.7247677  31.7846417  13.8058579  51.7133760  32.2394586  12.9636919
  51.7614937  32.4859166  14.4563162  36.8593216  28.7266779  47.9740620
  36.6508365  27.7965021  48.0608940  37.8048635  28.7474513  47.8265905
  44.3750572  29.8863721  21.8485951  43.5066175  29.8352790  22.2478914
  44.5513535  28.9962292  21.5439630 103.0599499  38.4014487  53.9264822
 103.3992767  39.2601109  53.6739159 102.2192669  38.3335376  53.4738636
  34.4593978  29.1876411  10.7766640  33.8004661  28.4934807  10.7903016
  34.4061875  29.5854926  11.6456366  35.5585837  28.6114144  43.6498260
  34.7418094  28.1858969  43.3889675  35.2797270  29.3906689  44.1306925
 110.5135438  64.1167241  87.4181581 109.8738715  63.4672099  87.7100250
 110.7576558  63.8333493  86.5370566  77.8574276  26.5603566  58.8524532
  77.8592682  25.6892180  59.2491245  78.5563898  26.5275979  58.1993008
  67.7726698  31.1341166  14.4453204  67.5251007  31.6962218  15.1794708
  68.5868597  30.7169890  14.7269797  79.2699718  31.2656140  12.0073271
  79.3127632  30.5852437  12.6792622  78.6835337  30.9075427  11.3409126
  92.0271206  51.8248844  32.1319294  91.4395809  51.3039684  32.6793623
  92.4021626  52.4709463  32.7304149  40.9165621  17.7025521  33.8623166
  41.0293341  17.1125531  34.6075797  41.4409018  17.3098075  33.1644273
  59.4938040  75.0759077   9.9347401  60.3530073  75.3208590   9.5912230
  58.9282656  75.0417185   9.1632307 106.7676830  19.4470990  37.3201203
 106.4787674  20.1246929  36.7088652 106.0902405  18.7728703  37.2679782
   4.3123387  93.9132326  85.6531221   3.9663790  94.1158550  84.7839344
   3.9290903  93.0636924  85.8713860  80.4585838  42.8715849  19.9980128
  81.0886097  43.5111523  19.6659815  79.6230984  43.3386755  20.0028896
  54.6439075  34.3068457  33.6734605  54.6118307  33.3857989  33.4148550
  55.2360010  34.7128892  33.0403852  84.3966961  23.8089824  37.6699376
  84.2378521  24.7113395  37.9469800  84.3021870  23.8306451  36.7176604
  82.2212029  31.2042594  15.0531101  82.7796841  31.1545253  14.2773151
  81.9918823  30.2943087  15.2418816  93.2656860  69.7569132  44.4822168
  92.3094749  69.7774601  44.4439316  93.4758186  70.0375938  45.3728867
  64.4873333  55.2016592  48.6712837  63.8392115  55.4090452  49.3444538
  64.9195194  56.0362148  48.4897184  94.8809910  49.1739035  29.9862504
  94.9196815  49.0795231  30.9380007  95.7109451  48.8119745  29.6757412
  82.8544712  61.6338682  38.9362955  82.6843452  61.6919661  39.8764634
  81.9869232  61.5499687  38.5406423  68.7697029  46.6603613  33.4611702
  69.3599033  46.8418550  32.7297664  68.4218931  47.5176668  33.7067008
  52.4106547 102.9153126  87.8185881  52.4644181 102.2422999  87.1400667
  53.0436238 103.5801046  87.5472278  92.0213509  50.8975029  45.6888199
  91.7577839  50.0860596  46.1227798  92.9494667  50.7726336  45.4907131
  70.6854868  38.1531000  16.5043128  70.8587217  37.6598501  17.3061383
  71.1651325  38.9734244  16.6193926  88.1010246  89.9873161  72.9541302
  87.4903393  90.2480793  72.2647190  87.5588417  89.5215511  73.5907841
  11.8143989  48.4781075   6.4818287  11.8518306  48.0465841   5.6282365
  12.7293159  48.5515070   6.7534268   7.8435229 101.1192720  79.5711959
   7.3895644 101.8885296  79.2271173   8.7710951 101.3529938  79.5362330
  72.1157885  58.8797092  37.4200821  71.7263985  59.3298817  38.1697130
  72.7221346  59.5186663  37.0455003  97.1054459  66.5649509  35.0619626
  97.1423721  65.7332134  34.5896459  96.8369484  67.2036982  34.4015503
  52.2670841  47.8987312  22.5690031  52.1092749  47.2347832  21.8978119
  53.1868601  48.1388378  22.4568105  90.9837818  50.6456184  34.3910766
  90.6992722  51.3926506  34.9176073  90.8078194  49.8831463  34.9423575
  54.0971994  27.3979425   9.5581508  54.6510887  28.0334902  10.0114894
  53.4032679  27.9247594   9.1617262  64.9732065  57.5935030  32.8458786
  65.8755398  57.8164482  33.0746341  65.0517035  57.0564842  32.0574141
  46.7813683  60.9283161   8.5604024  45.9140921  60.5299997   8.6339235
  46.8263292  61.2390900   7.6561737  88.4358025  76.1719942  47.6227570
  89.1594887  76.1154747  48.2467079  88.2718277  75.2653170  47.3633671
  75.4982662  63.3148289  44.7028542  75.8826208  63.7986135  43.9717913
  74.6455908  63.7272167  44.8410654  64.0969753  60.3539801  36.3181567
  64.0120077  60.0373650  37.2174716  63.5775995  61.1577463  36.2971330
  50.8147287   3.5563152  84.7572017  50.3251218   3.4352176  85.5707437
  50.2864885   3.1153076  84.0918422  88.0901814  61.9586372  45.3883696
  87.9863167  62.1753836  44.4618368  88.9621353  62.2827768  45.6138897
  81.2923908  96.7941380  24.4884753  81.3071060  96.6079426  25.4272747
  81.1967659  95.9358978  24.0755486  64.5424461  80.7011127  39.5477843
  64.4807863  79.9603367  38.9447188  65.0684786  80.3730679  40.2771091
  77.1278286  57.2371292  42.6836824  76.7112589  56.3781452  42.6140833
  77.2798204  57.5037766  41.7770243  82.6936340  55.4332685  35.3507900
  83.5591888  55.0449228  35.4782319  82.1118164  54.9067211  35.8989334
  62.5988817  59.2689276  18.5800672  63.0420446  58.5222101  18.9828658
  62.3107386  58.9446735  17.7268004  67.7862024  44.2549038  36.2126851
  67.8661060  43.3333969  35.9663725  67.7672768  44.2462587  37.1696591
  68.5642338  54.4949627  44.4417858  67.9463005  55.1970291  44.6454716
  68.3759308  53.8150024  45.0886440  80.3614426  60.1126909  42.3566914
  80.2153015  59.7521257  41.4821243  80.8705807  60.9090137  42.2054482
  53.7602425  24.0189552  39.3434620  52.9666996  23.8095164  38.8508630
  54.2785072  23.2146692  39.3159413  72.6906919  68.5566139  40.0061321
  72.2698402  68.9567184  40.7670736  72.4709940  69.1376162  39.2778444
 109.9704361  76.9089413  16.4134014 110.5789471  76.2349987  16.1105013
 109.4213963  76.4633989  17.0585966   0.2243803 103.8223665  84.6344906
   0.0121210 102.9100245  84.8314876   1.0319660 103.9906042  85.1200122
  73.7728262  69.0871477  22.0332217  74.4196987  68.7718630  21.4020514
  73.6387205  70.0057983  21.8001294  90.3272343  77.8839684  50.1676226
  90.8816051  77.3793888  50.7628536  89.4656467  77.8836584  50.5846310
  86.0085011  50.6652832  58.1918764  85.5004787  51.0607338  58.9002228
  85.6489658  49.7826242  58.1031179  79.0435362  64.4739342  29.6483827
  79.5694447  64.0213919  28.9889431  79.6030378  64.4996452  30.4246092
  66.5002871  30.6479454  26.1981916  66.5505457  31.3823247  26.8100667
  66.5349197  31.0547352  25.3324246  50.1706076  57.8292131  20.9216547
  49.9756145  57.6784945  21.8465853  49.3133831  57.8482008  20.4961634
  69.3486309  50.8610058  40.6570148  69.3079233  51.6913843  41.1314011
  68.6656713  50.3228140  41.0572004 103.5441589  56.7038298  10.7360864
 103.2577133  57.4669600  11.2378979 103.9745998  57.0722818   9.9645972
  61.3593388  47.6321888  10.6356359  60.9025574  46.9172573  11.0788667
  60.6705523  48.1005287  10.1639771  64.7017860  59.5651484  26.2810683
  64.8332024  59.6210766  25.3345823  63.7751293  59.7694969  26.4067006
  89.0617415  99.1177195  91.8973875  88.9328095  99.8069733  91.2458229
  88.2389781  99.0930336  92.3859402  96.6292953  39.6599555  36.0658908
  97.3224831  39.7100377  35.4076934  97.0870590  39.4523358  36.8804979
  38.3634281  54.8451233  33.5932899  38.5328341  54.4589853  34.4526100
  37.7123356  55.5264282  33.7610006  55.3701591  21.2215233   5.3696185
  55.7754707  21.1529493   6.2340552  54.5170069  21.6222835   5.5362183
  69.0178442 103.7823868  27.5522566  68.5714769 102.9358673  27.5321960
  69.4561815 103.8421917  26.7034245  97.6481915  73.9248991  36.1644220
  98.3818817  73.8053942  35.5613947  97.0801067  73.1716681  36.0026979
  74.2855665  92.5654047  79.7898746  74.3469402  93.2407706  80.4654086
  73.3458730  92.4600690  79.6411813  68.7349367  39.5392609   1.7373028
  68.0024862  39.6877074   2.3353890  69.3186140  40.2835894   1.8840395
  68.8527012  57.5712490   3.9586884  68.1664085  57.7257586   4.6078134
  69.5776606  57.1987915   4.4606268  85.6627083  61.4561749  10.3189957
  86.3908863  61.9015503   9.8858464  85.8101559  61.6081858  11.2524736
 104.5327854  55.6686211   0.8792493 104.7011662  56.4718056   0.3865313
 104.1519260  55.0692797   0.2374019   3.7921237 102.0033616   9.0568095
   3.9542340 101.5449328   8.2323122   4.0651511 102.9049898   8.8872379
  86.9668961  52.2630310  10.7357097  86.5042496  52.8225422  10.1119018
  87.8470039  52.1734667  10.3701675  40.6028985   3.6133211  90.8129475
  39.7170018   3.9430778  90.6623563  41.1744117   4.2774599  90.4275540
  60.5885935  56.1736441  18.0873573  60.1902294  56.4521980  18.9119458
  59.8650312  56.1708307  17.4607158  87.2342491  61.1474180  31.2017918
  86.8997860  61.1564541  30.3049707  87.3520088  60.2192926  31.4041567
  85.0350761  46.1022615  26.0123944  85.8408165  46.4205933  26.4194250
  85.2778435  45.2603865  25.6269789  88.3399773  53.2604790  25.1815701
  88.3271790  52.3591375  24.8596120  87.8684235  53.7597132  24.5147634
  89.3855286  66.1596251  23.1839776  90.0694656  65.5910969  22.8300881
  88.7146664  66.1806393  22.5015283  75.6800795  69.3524504  39.0554976
  75.8681250  68.8543320  39.8509526  74.7841072  69.1066504  38.8251758
  20.7645440  56.9742250  38.6403584  20.9240890  57.8948641  38.8482237
  20.0986934  56.6983700  39.2702603  43.4123802  30.9054828  46.9121885
  43.8828516  31.5360618  47.4573994  42.7023268  30.5888724  47.4705887
  62.5256252  21.4408422  32.9811025  61.7226791  21.4637947  32.4605441
  63.1940460  21.8147731  32.4069810  75.5164337  59.3316364  24.7889948
  74.7002935  58.9135313  24.5145226  75.5719423  60.1231194  24.2535472
  61.6122913  62.4825001  17.1255171  62.1919012  62.6333904  17.8721857
  61.6037798  63.3168554  16.6564643  48.4882402  54.7112751  30.8028841
  47.5797510  54.9956608  30.7029080  48.7685871  55.0930977  31.6346574
  93.4475231  85.3519535  13.9017272  93.6649609  85.6291485  13.0117178
  92.5689697  85.7003975  14.0532112 103.9181945  92.3461288  82.6105893
 103.8722607  91.4003604  82.4704242 103.6758753  92.7254956  81.7658449
   5.6551601  15.6367052   2.5540471   6.1289264  15.9822392   3.3106068
   6.3388301  15.4336882   1.9156101  90.9431553  61.4381027  52.5113440
  91.1928844  61.0888147  51.6558504  90.6695557  62.3376989  52.3321724
  78.7557125  34.3272495  24.1089344  78.9678907  34.3498611  23.1758213
  78.8961267  35.2255154  24.4083238  68.2909393  57.1570587  38.0222416
  68.5265493  56.3839817  38.5351515  68.3140373  57.8780746  38.6513901
  78.8052845  26.6135573  20.4587770  77.8961897  26.8108392  20.6842995
  79.2585135  26.5771031  21.3010883  71.5257788  66.9747066  22.9625440
  72.2849178  66.4693689  22.6717281  71.8987083  67.7014542  23.4615374
  72.3453188  53.9152718  40.3711033  71.5379477  54.3577290  40.6330538
  72.9570293  54.0898991  41.0863304  56.8295335  30.4521387  91.1764667
  56.1700582  29.8157423  91.4527445  57.3548364  29.9857633  90.5262564
  72.7191162  56.8961430  32.2156143  72.4297190  56.4159298  32.9914236
  73.5451412  56.4793587  31.9702482 106.3868615 104.8371904  90.6484643
 107.1872327 105.3501480  90.5365876 106.6880843 103.9296454  90.6915605
  79.9550200  53.5950470  25.7480454  80.6363773  52.9841709  25.4673052
  79.8470736  54.1907024  25.0065756  80.5747604  73.3941889  32.6606345
  81.2467861  72.8605318  32.2365618  79.9626493  72.7584410  33.0312753
  67.3583603  22.8430700  14.5535970  66.5799952  22.3394108  14.7917295
  68.0782509  22.3963451  14.9990547  19.6525862  13.2193756   9.9357510
  19.8406031  12.4133205  10.4165316  18.9097788  13.6067295  10.3988087
  80.2639008  82.6620483  20.3242707  79.3452215  82.9198265  20.2480507
  80.3812790  82.4658108  21.2537575  24.9177503  20.9761636  88.6550135
  24.2155885  21.2884204  88.0843160  25.0131797  20.0500600  88.4326080
  85.3288746  29.1633296  36.2896276  85.7890224  28.7362623  35.5670547
  84.4988251  29.4501138  35.9088254  89.9384117  46.0371685  33.0226994
  90.7282734  45.7484007  32.5655675  89.5028877  45.2258825  33.2841825
  69.3062449  71.6548443   1.0171207  69.8902273  71.0654974   1.4944702
  69.7747183  72.4892473   0.9938977  96.2446404  65.3082085  21.7223692
  96.8760586  66.0195398  21.6148877  96.5687943  64.6118689  21.1511683
  80.4405975  68.9603949   8.3046949  80.5982780  68.2465553   8.9225948
  81.3135147  69.2170238   8.0073792  77.3214722  50.3637981  33.2179213
  76.4472675  50.7046509  33.0286598  77.8216267  50.5303240  32.4189520
  66.0686207  51.9281769  36.8669367  66.9500351  52.3014641  36.8658471
  65.7071638  52.1649981  36.0128331  61.2275791  79.5505333  28.4911227
  60.6161070  79.7550583  27.7836585  60.7413197  79.7462463  29.2920470
  57.0366478  38.6324835  30.9572840  57.8240108  38.5850120  30.4150295
  56.3218307  38.7508869  30.3317833  77.0262241  94.3801022  36.0425639
  77.0830870  93.6452103  35.4318833  76.4865065  95.0273991  35.5887651
  64.1010332  52.0280600  17.8124118  64.1658401  51.4450598  18.5688114
  63.3352566  51.7131090  17.3321784  66.9557953  14.3429220  44.1397810
  66.0104465  14.4255328  44.0143728  67.3115158  14.2916560  43.2526159
  79.5367479  60.6103849  60.6785870  80.2423286  61.0498190  60.2039433
  79.8656988  59.7243834  60.8303308  48.3249950  55.9050846  27.5721049
  48.1045198  54.9755669  27.5119257  48.5944700  56.0288858  28.4822059
  74.6375561  61.8093681  75.1949739  75.3234339  62.4548912  75.0243664
  73.9264297  62.0531988  74.6024561  66.8664408  31.1131263   3.8352773
  66.9311285  30.2798533   3.3686882  66.8498850  30.8688259   4.7606283
  53.7548685  25.8006215  48.8500786  53.8297176  24.8659563  49.0425110
  54.3575716  26.2205315  49.4637966  70.1747274  47.5899839  31.2737823
  70.7054567  46.9154310  30.8500552  69.9323845  48.1849289  30.5641794
  83.6277199  38.8278437  35.1266098  84.0300369  38.6458015  34.2773557
  83.0421066  38.0860066  35.2781582 109.2327496  97.1110123  89.6623740
 109.8676297  96.7589586  89.0384990 108.6015603  97.5843971  89.1203985
  83.3830166  55.4269695  23.6408687  83.8485146  54.8811293  24.2745900
  82.4660206  55.1668692  23.7286448  78.4754848  35.7285762  37.8224707
  79.1477871  35.1881981  37.4074626  78.4292841  36.5140200  37.2773337
  59.6331596  34.3504071   7.1808475  58.7038231  34.1249919   7.1389693
  59.6463346  35.2551270   7.4931610  66.0472059  79.7674131  29.0915394
  66.5927505  79.0035534  28.9040995  66.2938261  80.0257683  29.9796057
 100.0491524  41.0855389  12.9487216  99.6964264  41.7734146  13.5132134
 100.0716019  41.4794445  12.0766163  78.2424641  45.2313757  10.1867688
  78.0823946  44.6065235  10.8939934  77.5514364  45.8864164  10.2849412
  51.7240715  29.9002552  24.3596673  51.2858009  30.3767729  23.6546278
  51.2928057  29.0458608  24.3754649 104.4615841  53.5849333  43.4558392
 104.0394020  52.8527737  43.9052105 104.8769951  53.1884909  42.6900101
  72.1893406  51.1082602  40.6266546  71.3563538  50.6377888  40.6586504
  71.9457722  52.0137167  40.4341698  84.9220848  82.6965523  63.2136917
  84.9969101  82.4602699  62.2891331  85.4683208  82.0561790  63.6695242
  73.2936192  60.2054930  28.6689639  73.6723995  61.0100698  29.0230942
  73.0124092  59.7134209  29.4403386   3.1245325 104.8121231  90.6855791
   3.2788132 104.1209286  91.3295386   2.2057341 105.0516193  90.8067504
  91.3854885  53.7465096  59.3138838  92.1791553  53.2251024  59.4341326
  90.8776188  53.2628965  58.6624050  42.1864652   5.3310077  85.7259721
  42.7780389   5.8973758  86.2214488  42.6182222   5.2157800  84.8794842
  74.5281601  72.3360729  52.3993397  74.1281033  72.8786802  51.7198086
  74.9785566  71.6423178  51.9175911  69.0474319  61.4617300  16.3135540
  69.3859529  60.6014109  16.5615213  68.5214281  61.2957573  15.5312455
  88.8027477  54.7203112  32.8055024  88.4468937  55.1886749  33.5606432
  89.6957779  55.0531340  32.7163100  70.5082560  49.6605349  14.6425676
  71.3231659  49.5878696  15.1394320  69.9979067  48.8948488  14.9062026
  43.7918519  12.5779121  91.2906802  44.2702054  11.8567579  90.8815992
  42.8896093  12.4675148  90.9906954  79.3569756  99.3446255  10.6573308
  79.3589735  98.6441517  10.0049829  80.0769138  99.1237068  11.2481964
  35.2246093  15.7907741  85.5606920  35.1926612  14.9662559  86.0458571
  35.4294776  15.5321662  84.6621472  50.7670355  34.0605092  34.4275618
  51.3503122  33.6628890  35.0740266  51.0088301  34.9866605  34.4244075
  26.6995645  90.3659153  22.5015378  26.5849423  89.4183064  22.4298930
  26.5743041  90.6904221  21.6097784  62.9753065  40.0151300  39.3927813
  63.5861874  40.7032728  39.1291189  62.7349520  39.5815969  38.5739350
  87.9960060  54.8865271  39.2122078  87.4440193  54.4560909  38.5593104
  88.6568832  54.2314243  39.4365096  58.9207983  65.0891256  56.9070292
  59.1391802  64.1673851  57.0446444  59.6957064  65.5658531  57.2044849
  88.7841511  51.7998695  15.5613792  88.8426399  51.5977001  14.6276021
  88.5405064  52.7250576  15.5913281  54.4942045  45.7302666  34.1860437
  55.3526974  45.4468966  34.5005631  54.1391087  46.2576914  34.9015594
  72.2831917  20.6916237   6.6155142  72.0319271  21.0205841   7.4785805
  71.4518309  20.5167198   6.1745107  65.9077501  52.3221779  28.1680226
  65.9936857  52.9482508  28.8869667  65.2479458  51.6984701  28.4711409
  73.5676670  24.6624780  30.8828664  74.5157194  24.5711732  30.7874799
  73.2776451  25.0328946  30.0492549  49.9372816  49.0406418  21.4246869
  50.7271385  49.0202188  21.9650030  49.4131136  48.3038712  21.7387724
  66.6526461  56.6788340  45.1095057  65.7487822  56.7654419  44.8065901
  66.6102600  56.8678999  46.0468864  59.9323559  73.0076933  30.8594322
  59.6777773  73.9303207  30.8729148  59.2017365  72.5639009  30.4287672
  95.1611328  75.6225681  68.4914923  94.9264812  75.2804947  69.3541384
  95.7539082  76.3511658  68.6758900  78.6339140  57.8370810  27.2772932
  77.8876257  57.3023272  27.5480843  79.3932486  57.2667170  27.3970032
  94.5138359  48.9366198   3.1844765  94.1885757  48.1109190   3.5431549
  93.8809586  49.1683197   2.5047594   2.5269844  54.5745897  14.2877471
   2.8375770  55.2246904  13.6575627   3.0559017  53.7968636  14.1099262
  80.7699203  56.7675591  33.9217520  81.4332390  56.3209248  34.4478297
  81.0770607  56.6747808  33.0199265  60.0604916  12.7650666   7.2873890
  59.6923971  12.5197089   8.1362349  61.0077953  12.7505922   7.4239093
  65.5736685  49.2434549  43.6702538  65.8953905  49.8263741  42.9825497
  65.6714869  48.3644056  43.3042812 102.5134659  76.3165331  40.0535202
 101.8651199  77.0159864  40.1350927 103.3527756  76.7733002  39.9973321
  67.6337576 103.5759544   5.3560185  67.5479412 104.2515087   6.0286969
  67.5241852 104.0458488   4.5293221 103.3781338  68.5141754   1.9282047
 103.9990902  68.2313156   1.2569039 102.7871895  69.1124773   1.4709944
 100.8127975  53.1311989  44.6472597  99.9087143  53.0067205  44.9359894
 100.7623196  53.1225634  43.6914301   1.7866873  44.7023122  86.2166953
   1.0624026  44.0769308  86.1934364   2.4229478  44.3552797  85.5914200
  73.5770655  66.0959721  41.0744333  73.6709833  66.5962029  41.8850994
  73.0912733  66.6771889  40.4892588  64.5483636  71.6370504  77.7956045
  64.8298024  72.5318353  77.9863441  64.7481393  71.5158765  76.8673599
  97.9895401  75.3017330  38.5242248  97.8366756  74.6833181  37.8097844
  98.3969593  76.0585117  38.1028843  43.7176179  52.2443883  80.0906718
  43.9668512  53.1292169  80.3575003  42.9378938  52.0482748  80.6101048
   5.7824756  78.8746166  46.7044401   4.9457790  78.4290266  46.8371582
   6.2179329  78.8249254  47.5554037  87.2201157  51.9667006  43.3033895
  88.0252647  51.6270733  43.6940575  87.1042061  51.4498425  42.5061083
  98.5509682  40.1537561  22.1501613  98.8174629  40.4465485  21.2786770
  97.6778507  39.7830963  22.0217085 105.6352806  70.3289890   2.5077939
 106.2810802  70.5691195   3.1722605 105.6386375  69.3717957   2.5054193
  83.8354874  72.5414848  24.0912342  83.2656097  71.8934107  23.6771321
  84.1486263  72.1114206  24.8869848 110.4886913  28.4359193  54.1388845
 110.0599766  27.6501298  54.4779539 109.9026966  28.7503195  53.4504175
  88.9589405  46.8006516  17.6796329  88.2886314  46.9704866  18.3414972
  88.9669132  47.5903082  17.1386933  71.6175795  29.4343710   3.3968228
  71.4806604  29.2599726   2.4656570  71.2302399  28.6802459   3.8412267
  72.1775627  32.0349979  21.4483142  72.3239756  31.7886257  20.5350256
  73.0081177  32.4193668  21.7288017  67.8534985  63.9639711  28.3699226
  68.1546259  63.0876446  28.6099458  67.5607395  63.8765287  27.4627972
 107.0874310  65.9573078  32.7358222 106.9708443  65.3761339  31.9842386
 107.9061127  66.4196682  32.5563383 103.1069756  71.5869665  78.0722380
 102.2867393  72.0550776  78.2281637 103.1798840  71.5425348  77.1188498
  62.5913239  72.8457832  30.7578874  62.9838181  73.0160713  29.9016285
  61.7093325  73.2122087  30.6942129  52.5822210  77.6419592  49.6207047
  52.6783705  78.4455585  49.1096115  53.4241009  77.5379848  50.0641680
  94.9073696  82.4974728   2.2676046  94.0846634  82.0996189   1.9828069
  95.5603790  81.8075466   2.1500498   3.5010673  71.5505791  25.0009394
   4.3802883  71.2211514  25.1871753   3.6441566  72.3062611  24.4311070
  87.3617554  70.6569052  22.3784065  88.1189728  70.7337570  22.9588747
  87.6877499  70.9325504  21.5216851  15.0270797  49.2705250  23.1342530
  15.2965690  50.1886463  23.1084180  15.7171108  48.8049841  22.6616406
  81.9941711  71.0102797  42.2401285  82.5506687  70.6262732  42.9176807
  81.1032009  70.9046745  42.5736904 105.3445911  52.7916336  23.1489062
 104.5978165  53.0143642  22.5930738 106.1039829  52.8662348  22.5709963
  88.0812359  92.2965431  39.7797775  87.3624611  92.1727085  40.3996658
  88.0597115  93.2305717  39.5715642   7.6638606   4.0128898   6.3800979
   7.2727110   3.6063575   5.6068140   8.6040690   4.0136718   6.2005699
 102.7635574  99.6581841  30.0543213 101.8976593 100.0431252  30.1895142
 103.0669308 100.0350952  29.2284107  30.8656739  27.8368108  85.2729094
  30.1418399  28.0246656  85.8704126  31.5399837  27.4463384  85.8288527
  67.0040274  37.5500369  27.1981883  67.5139666  38.3598518  27.1783638
  66.6989756  37.4369860  26.2979674  90.2396965  94.4339466  22.0300412
  91.0367489  94.3020916  21.5166640  89.5363235  94.4479752  21.3809705
 110.4146194 100.8357716  33.8321257 111.1216354 100.8840275  33.1886649
 110.0140953  99.9790955  33.6840844   7.4545433  68.7617111  45.9159279
   7.0731308  67.8940058  46.0494852   8.1829692  68.6129332  45.3130245
  54.7978734  49.6334188  91.3345769  54.5608663  50.3055494  91.9735683
  54.2366265  49.8118131  90.5799815  77.5432634  98.9812469  41.3657475
  77.5945997  98.1913090  41.9038916  76.7935944  98.8305187  40.7899857
  78.0122757  57.4929762  33.6314011  78.8584661  57.0812321  33.8065100
  77.3802137  56.7767286  33.6923718  66.4971352  50.8532810  41.6728449
  65.9069347  50.7978153  40.9213018  66.7769098  51.7685080  41.6906404
  67.2173405  64.3843651  25.6657648  67.1277618  65.3354263  25.6050611
  67.9020357  64.1674089  25.0330305 104.8891735  82.7699471  11.9140530
 104.2782974  82.3168087  12.4952030 105.6578827  82.9384327  12.4589586
  12.9443790  91.2434578  57.5880766  13.7572338  91.6434669  57.2790718
  13.0952598  91.0833359  58.5196495  69.7049236  78.2714510  27.3869848
  70.0998402  79.1405153  27.4577498  70.2711868  77.8000879  26.7759275
  12.2296764  64.2277431  53.6913824  11.2739612  64.1745472  53.6882544
  12.4799873  64.0942430  52.7771854 101.1563206  87.3852253  25.1506352
 100.3827000  87.6129723  25.6662631 101.7823029  87.0507908  25.7929182
  74.1310644  85.3576469   7.5810695  74.0762758  86.3132763   7.5820994
  73.2376432  85.0667191   7.3983437  79.8162794  68.3495426  33.9729214
  80.7522011  68.2507944  34.1476703  79.5518351  67.5078344  33.6016607
  75.9051704  77.3313379   9.8652345  75.2133274  77.8764296  10.2400160
  76.0171318  76.6195822  10.4953933  69.8730087  60.1965761  20.9549046
  70.4794836  59.5431995  20.6063128  70.4030991  60.9876442  21.0520983
  65.2682829  83.1513786  26.6346025  65.0347710  82.7485275  25.7982922
  64.6934080  82.7288914  27.2727656  98.6810207  83.2271004  66.4651537
  99.2119598  83.4074211  67.2409201  99.3183422  83.1101227  65.7606220
  83.3512306  53.5200024  19.0624511  83.6421776  53.2685900  18.1858814
  82.3967361  53.4587145  19.0247655  60.9853125  86.6590023  58.7867832
  61.6490889  87.3384476  58.6684847  60.4832649  86.9449329  59.5499563
  61.8538809  86.7929173  14.9695873  61.8730640  87.4025631  14.2318928
  60.9380913  86.7824364  15.2478933  91.9128990  67.1248245  56.6503668
  91.3870716  66.8785429  57.4113512  92.7072525  66.5962696  56.7269230
  49.2816353  71.2765789  46.6217566  49.8010540  70.6250906  47.0929241
  49.7621059  71.4221382  45.8067751  80.3633881  80.1199341  37.0693421
  80.2112293  80.7943249  37.7313662  80.1991177  79.2947912  37.5258398
  62.2566128  52.3437119  35.6917024  62.1690655  51.4778566  36.0902739
  61.3636780  52.5856876  35.4460311   1.6096069  97.5226021  11.6093278
   2.1244003  97.2582531  10.8468664   1.3400127  96.6980362  12.0138609
   8.2485153  86.4524364  58.0899382   8.8422443  87.0624065  57.6521587
   7.3731090  86.7749500  57.8757381  12.8110979  64.3018060  89.9351186
  13.6620138  64.2741793  89.4976095  12.9642771  64.8214834  90.7242346
  86.1010742  77.9667377  41.2873936  85.3974915  77.3334455  41.4293337
  85.7392883  78.5893440  40.6567526  94.1389179  44.4278860   3.7569562
  93.9116859  43.5858011   4.1512826  95.0620937  44.3399668   3.5198021
  87.0447445  59.9765587  58.4189463  87.4437809  59.7567225  59.2607784
  87.2740746  59.2443228  57.8466940   5.0617602   0.7044792  28.0049419
   4.9782565  -0.2476597  27.9531670   4.6792986   1.0232639  27.1874237
  97.0870925   4.0441322   2.9578692  97.3425151   3.5746860   3.7519813
  96.7542363   4.8844528   3.2729900   3.0401851  43.0490351   8.0164099
   2.9981376  42.9507923   8.9676261   3.9491512  43.2922029   7.8406900
  52.8782606  67.2842598  21.0760331  52.3251820  68.0606508  21.1629486
  53.2883692  67.3773766  20.2161646  27.6364424   7.4794578  16.3260436
  27.6094153   6.6305923  16.7675459  27.5462534   8.1195735  17.0319843
  66.0902548  70.3575993  63.5992479  65.9505177  69.8696136  62.7877188
  67.0419550  70.4210949  63.6796951  59.7299576  76.8284893  24.9114919
  60.6701040  76.9003057  24.7465706  59.5539188  75.8878946  24.8885202
  81.0479355  68.3599520   5.1077503  81.5340137  68.5499144   5.9101695
  80.1851368  68.0778837   5.4114658  72.3940897  67.6613426  11.3724041
  72.5243235  68.5806179  11.6052353  73.0245733  67.5004387  10.6703830
   1.4252712  61.7955923  30.9199834   2.2125484  61.3830566  30.5646896
   1.7355587  62.6189852  31.2967753  59.0354252  82.8180885  60.8150434
  58.2980394  82.2156048  60.7175398  59.3983793  82.8971577  59.9328613
 104.3619633  66.1824083  22.3996806 104.8040009  66.8465710  22.9285645
 104.7896576  65.3606749  22.6406503  89.5995235  66.0611343  68.5411978
  89.5272827  66.2596083  67.6075935  89.6688366  66.9173765  68.9634275
   1.0268261  55.6284380  34.7978830   1.3235904  55.3407001  35.6612301
   0.8752681  54.8166513  34.3138742  82.1407509  61.4227819  52.1682262
  82.3019981  60.9769344  51.3366890  82.3588562  62.3385954  51.9951916
  93.6006069  53.9001369  33.3934474  93.7951279  54.7273588  33.8340163
  93.8127995  54.0626144  32.4743128  20.8430552  99.4601536   3.7350529
  21.5001035  99.2454052   3.0729336  20.0379348  99.6006584   3.2367820
 112.9939556  97.6253414   4.3157995 112.9454803  98.2512951   3.5932589
 113.9246464  97.4132538   4.3869174 106.9147110  71.5082312  49.3451691
 107.8554821  71.6128683  49.4874048 106.8112755  71.5399885  48.3941031
  83.0092525  58.0814075  22.6114249  82.9743576  57.1248436  22.6119137
  82.0933342  58.3545160  22.6637387  44.9463844  82.2327805  24.6011806
  45.7550573  82.7446747  24.6167684  44.9979258  81.6797447  25.3807497
  97.4478436  98.7284088  22.6158524  97.5113297  99.6834660  22.6239324
  98.0245113  98.4440327  23.3249450  60.2216864  94.6516800  34.3781853
  59.2733765  94.7593212  34.3049932  60.4034901  93.8226128  33.9356685
  34.9411487  45.5034177  64.9155701  35.3984784  46.2554758  64.5394266
  35.6368112  44.8799818  65.1244128 108.3692074  49.5534182  12.5942445
 108.6740208  49.9261904  11.7669809 108.2658672  48.6193514  12.4124002
  40.9319448  37.2049928  19.2037678  41.3958120  36.8142128  18.4632587
  40.5111074  36.4644790  19.6405315  66.6279268  61.6681767  40.6994200
  66.9625950  60.8419371  40.3507662  67.3789310  62.2610664  40.6728268
 106.0394669  92.6289654  66.0515499 106.4748573  93.0070686  66.8155479
 106.7144585  92.0970154  65.6300688  84.2215443  73.4500599  30.6158233
  83.6850071  72.6657057  30.7304740  84.3040276  73.5472584  29.6671510
  87.9447937  43.3966875  77.7505302  87.9790783  42.9806089  78.6118889
  88.8348675  43.7166595  77.6035023  87.3204422  66.9034576  21.5137815
  86.5769482  66.3037014  21.4526486  86.9339275  67.7377462  21.7798519
   0.8593132  65.9456205   2.4577309   0.5548812  65.8544636   3.3606395
   0.7757331  65.0671196   2.0869432  78.1368780  65.6967449  35.9298873
  77.4345112  65.5963469  36.5724087  78.9077950  65.9213877  36.4508986
 104.8453236  66.1484241  25.7329440 104.8146534  66.9162989  25.1622772
 104.1645527  66.3084030  26.3865352  13.4664725 106.4198464  80.4748834
  13.2260989 107.0158356  79.7654832  13.7299822 105.6135576  80.0313819
  95.9704590  68.9982843  23.0810690  96.3282108  69.6860743  23.6424851
  96.4524841  69.0854979  22.2587061  71.8887663  83.4291363  50.8200169
  72.3819876  82.8309822  51.3814211  71.0421610  82.9995632  50.6977320
  90.4971218  75.4443693  54.0399647  90.4032421  74.6243572  54.5247269
  91.4013863  75.7147312  54.1994810  87.8029728  77.2674131  16.3776314
  88.4831524  77.5596905  15.7708609  87.9028130  77.8359079  17.1412277
  72.7192926  95.2807522  34.5667934  72.0231438  95.5748463  33.9793229
  72.6334476  94.3275261  34.5815730  25.8768748   2.2174518  90.2633132
  26.1402034   1.3060634  90.3908603  26.4172124   2.5231569  89.5347450
  85.7356548  90.7924652  71.6282558  84.9568176  91.3467503  71.6772842
  85.4045773  89.9381447  71.3512182  67.2805929  54.5193720  36.7902851
  67.5975561  54.3020344  35.9136271  68.0640316  54.7933674  37.2671318
  66.1627150  66.2343454  40.9976053  65.9992790  65.6091452  41.7037535
  67.0252895  66.5990829  41.1955070  81.9492435  94.0803623  48.3932972
  82.7933979  93.8636494  47.9974842  81.3354111  94.0885925  47.6588726
  71.4525652  94.4387054  23.7416935  71.4810371  94.3204308  24.6911311
  71.2634230  93.5659218  23.3971643  66.4187670  46.7517471  40.1345015
  66.3244343  47.7008152  40.2157259  66.4568758  46.4366817  41.0375595
  41.0883906  17.6369285  42.0803213  41.2021067  18.5051250  41.6936207
  41.8378737  17.5360679  42.6671219  67.2168589 102.2599602  24.0417171
  66.6874075 103.0554008  24.0981269  67.9508781 102.5004005  23.4763575
  76.4726877  59.6876812  20.6980515  76.4076281  58.8474607  21.1519527
  77.3907137  59.7465277  20.4334760  16.2134074  94.9464386  82.7628470
  16.9209765  94.5675963  83.2844270  15.7714842  94.1914242  82.3744047
  79.8478985  81.7559052  13.3328652  80.2941227  81.6836262  14.1766012
  80.5227852  81.5487289  12.6864672  45.6382084  82.8125668  13.4607494
  45.3476286  82.5458050  12.5886059  45.3942919  82.0815372  14.0284872
  94.1940880  58.7224913   6.5910655  94.4863033  59.1245413   5.7730192
  95.0008106  58.5621071   7.0806634  93.1034756  79.5774984  10.4337871
  93.6484814  79.7828627  11.1934102  92.8291321  78.6712122  10.5738246
  68.9024019 104.8176098  19.2700410  69.2777061 103.9378166  19.2333019
  69.2203903 105.1793003  20.0972652  72.6587820  79.1790295  47.7358818
  72.6546717  78.3671761  48.2429409  72.6496363  78.8913059  46.8229961
   8.6027004 105.1374912  30.6924319   7.8671981 105.5484486  30.2381468
   8.2214691 104.3712997  31.1212015  48.6704731 100.5482292  70.0889635
  48.9617586 100.9244251  69.2583895  49.4803143 100.3481293  70.5583811
  98.0902100  92.4596596   7.5974500  97.8382111  92.6688862   8.4968698
  98.9889145  92.7798748   7.5198501   3.2048275  62.2369385  27.9040623
   3.4129287  61.6142178  28.6005878   2.7226020  61.7211151  27.2578263
  85.2604485  69.3897247  10.4674661  85.4787254  69.3830490   9.5355111
  84.7202301  68.6094952  10.5925274 105.6817245  66.2701082  45.9752655
 105.9228992  66.6742039  45.1417351 104.7583866  66.4939880  46.0916901
  89.5464802  21.7654848  11.3817382  90.2715111  22.2347903  11.7944217
  88.8437843  22.4129224  11.3244689  63.3066320  67.9256535  53.9984560
  63.9871120  67.5262403  53.4565639  63.1138325  68.7576437  53.5661840
  83.2297611  99.8326874  57.1646404  82.5376415  99.8942757  56.5062952
  83.2150269  98.9168739  57.4426794  58.6529874  13.2238739  84.0206236
  58.1126641  12.4627750  83.8084609  59.5454358  12.8802030  84.0612388
  86.6923523  89.8196030  26.5925765  87.3072720  89.9292660  25.8672643
  86.8452740  88.9272881  26.9034076  76.8325043  74.1039133  48.2068110
  76.7941856  74.2228651  49.1558218  76.9329548  74.9897194  47.8582621
  70.0518179  85.1159191  12.2739100  69.7982883  84.2078972  12.4396014
  70.2897263  85.4591370  13.1352055  87.8954220  49.9005985  29.1238618
  88.3716106  50.4765129  28.5257030  88.4401226  49.8689747  29.9103284
  92.1151257  80.9565735  27.2235727  92.5714302  80.1542759  26.9699359
  92.3872757  81.1111450  28.1281590  21.8632319  28.4299659  20.9289646
  21.8339159  27.4787044  21.0313034  21.0586550  28.7404537  21.3442779
  72.1640682  67.4059725  50.5013466  72.7969313  67.5043964  51.2127018
  72.6816940  67.0848799  49.7629738  14.8909618 104.5762253  75.4149437
  15.1347496 104.4608593  76.3333607  14.6384098 105.4970741  75.3480291
  14.0914680  44.4370842  47.0759392  13.4014751  44.6726465  47.6961422
  14.7498848  45.1243639  47.1777487  96.0951805  88.8421822  37.7009535
  96.3284016  89.5269299  38.3278155  96.0694599  89.2901611  36.8554449
  93.4801102  96.8025970  45.1235628  94.3756104  96.6666508  45.4331112
  93.5810471  97.2834778  44.3021059  71.1431503  49.6734667  34.0432048
  71.4067793  50.5744505  33.8562298  70.2143574  49.6431589  33.8137364
  84.7060776  61.0454988  32.6552224  84.9959373  61.2448692  33.5454297
  85.4837036  61.1817741  32.1139669  86.6630840  51.9902658  55.8943462
  86.5587425  51.4026070  56.6426802  85.7900429  52.3568153  55.7540989
  75.4686832  44.4141483  12.3114729  75.3107595  43.9179850  11.5082824
  74.7270155  45.0163555  12.3707271  27.0077994  12.9437923  19.2962217
  27.6467230  13.4010028  18.7494516  26.3738921  13.6186408  19.5390856
  61.1896181  74.1518593  36.5791678  60.8222389  74.3779850  35.7246900
  60.4352522  74.1382599  37.1682119  86.0141087  86.2097168  12.4355912
  86.3726330  85.3221989  12.4343824  85.9450150  86.4413834  11.5094233
  90.3980350  34.8619556  61.6831827  90.0339317  34.5964479  62.5276756
  90.5746937  35.7975054  61.7820120 106.0271358  70.1543188  35.5729175
 105.0716782  70.1964092  35.5334401 106.2490749  70.5402803  36.4202714
  18.7197925  35.2159572  35.2289057  18.2830955  34.3780875  35.3821898
  18.3975937  35.5010843  34.3738484  58.2981062  44.0034866  26.6946983
  57.8054190  44.2216253  27.4858427  58.4196520  44.8420382  26.2493968
  49.9669027  34.9605005  75.3414738  50.2442693  35.7940023  74.9612391
  49.5286512  34.5037382  74.6234691  67.3680353  87.6669407  31.0272741
  66.4390182  87.8114796  30.8476472  67.4526501  87.7982616  31.9716406
  97.9537964  86.0951424  31.3226366  97.2129536  85.6265259  31.7070460
  97.6671696  87.0077038  31.2863278  51.6104984  91.3222885  25.3416204
  52.5339270  91.5719986  25.3075361  51.1503458  92.0483208  24.9204826
   4.2030480  13.9602565  17.1862698   4.4542983  13.0582523  16.9875741
   3.2911303  14.0229988  16.9021821  33.3858347  73.1678772  29.1760349
  32.9764581  72.5776577  28.5433602  33.0762649  72.8585100  30.0273228
  74.2511272  65.9636831  33.8825631  73.4371471  65.7865095  34.3540263
  74.6786737  66.6514254  34.3929029  94.8341179  58.6117887  60.3793573
  95.2990627  57.7792740  60.2958679  94.8320389  58.9748335  59.4936800
  37.9098990   7.7668857   3.3378446  37.5096323   8.3595943   3.9740151
  38.8504031   7.9225349   3.4242091  12.4395468   0.5060195  46.1538363
  12.7995684   1.2903213  46.5679455  12.7918341   0.5218505  45.2639580
  10.9098198  95.1815701  38.9834523  11.6969062  95.3941059  38.4819031
  11.2351181  94.7150230  39.7533536  90.1647568  91.7282581  84.5206738
  89.8182201  92.1407032  85.3118992  91.0552406  91.4681721  84.7565079
  82.2399616  67.5236177  34.6512365  82.4426365  67.3895693  35.5770802
  82.9552460  67.0915079  34.1844678  91.1980057  71.7484951   7.9682833
  92.0955753  71.4165974   7.9469132  91.2147522  72.5209141   7.4031997
  91.4319324  87.0285606  54.4059134  91.0130501  86.5939522  55.1487970
  92.1127605  86.4177132  54.1238308  82.9405689  59.5836878  26.5341401
  83.6704254  58.9680624  26.4667296  82.4584675  59.2995024  27.3107004
  93.3331203  79.6057987  38.7748051  93.5990047  80.4195023  38.3465242
  92.6270294  79.8661089  39.3663263  67.5129652  58.4728861  12.9468036
  66.8888664  57.7812386  12.7269006  67.6986933  58.3411694  13.8765275
  93.6857700  63.6354017  26.7369819  94.2625046  62.8720665  26.7063951
  93.8919163  64.1234350  25.9397602  66.9034338  85.3745842  19.8704743
  67.3702574  84.8756123  20.5408025  66.8312645  84.7720528  19.1302180
  94.7279453  80.9175205  42.9472399  94.8610497  79.9921989  42.7415895
  93.9990711  80.9225464  43.5676908  74.7304487  66.9690228  51.9377851
  75.1580191  67.8063154  52.1176815  74.1264772  66.8462801  52.6701689
 113.1654739  79.3313503  16.2491238 113.3375740  79.5739698  17.1589327
 113.3731651  78.3979130  16.2067723 112.0887089  99.9475670  14.3289971
 112.2382450  99.6286583  13.4389579 112.5785351  99.3423176  14.8857439
  73.0564976  57.4399853   3.1966931  73.5986042  58.0103540   3.7416983
  73.1836796  56.5655422   3.5646710  66.9406652 101.0856628   9.8674011
  66.0944605 100.6869984   9.6643233  66.7217350 101.9563580  10.1993489
  90.3745747  65.9872103  58.6790657  90.7830334  65.4459333  59.3546486
  89.7087097  65.4210901  58.2887220  56.9828749  66.6771078  24.0760875
  56.2025261  66.9003248  23.5686803  57.6933241  67.1510363  23.6437941
  93.3459091  74.3880081  31.0394382  93.9738464  73.6699581  31.1190200
  92.6457691  74.1629171  31.6521168   9.4735004  71.8398380  46.9400358
   9.4235851  71.6373301  47.8742361   9.7825386  72.7451897  46.9073915
  79.0268946  87.2167969  10.5397534  78.6960506  86.6313267   9.8585755
  79.3446636  86.6301918  11.2261581  90.7433414  80.2257729  32.4763489
  90.9975433  80.6710339  33.2846570  91.5673637  79.9036837  32.1109986
  77.5169802  68.9460611  32.1955514  77.0358753  68.3625555  31.6087890
  77.6489210  68.4302616  32.9910231 104.5055864  28.2447927  86.9811195
 105.4507134  28.3486192  87.0915258 104.4101570  27.8021257  86.1378080
  95.8927727  15.6199074   2.1760169  96.6229057  16.1782897   2.4431357
  95.3631306  16.1754632   1.6041236 103.4347725  53.5888863  28.8449240
 104.1658211  53.5127974  28.2317281 103.5260677  54.4652653  29.2189050
  60.4672670  70.9797621  46.6858912  60.8758259  70.1534414  46.4279985
  60.5976152  71.5565681  45.9332085  19.0288546   4.2348289  43.8698053
  19.4203761   4.1306590  44.7370386  19.1828349   3.3960056  43.4351826
  73.1774950  60.9208965  43.5653210  73.8177824  60.2093792  43.5678673
  73.6623526  61.6805840  43.8878345  93.7405205  79.3530035  12.9600501
  94.1866302  78.5176992  13.0996335  93.0785942  79.3893385  13.6505330
 105.0570965  72.5637865   7.3467594 104.7941875  71.6617680   7.5297153
 104.2715645  73.0822515   7.5210124   1.9527198  64.3735504  29.3234372
   1.1403419  63.9784002  29.6398759   2.3469211  63.6997366  28.7695360
  75.5378771  87.4356461  10.4334545  75.7352495  88.2748699  10.8493590
  75.1478529  87.6713467   9.5916975  76.6559219  69.5096159  24.8914313
  75.7692051  69.1671371  24.7788763  76.5404415  70.4578304  24.9529147
  82.3393822  79.4512510  25.8336282  81.7038822  79.8716831  26.4129400
  81.9526768  78.5991573  25.6320620  80.1140118  55.4973888  23.4473372
  79.5926952  56.2951183  23.5372782  79.7982550  55.0948620  22.6383257
 110.0858688  68.2513762  12.3421741 109.6355057  69.0439129  12.0501280
 111.0160923  68.4544420  12.2437608  82.7229118  74.7666311  57.8059912
  83.4042358  75.3639650  58.1145763  81.9021893  75.2223969  57.9928732
  82.4870110 102.3024654  58.7365866  82.6821232 101.5552902  58.1709909
  82.3310375 103.0270672  58.1308985  79.4566202  66.2719965  22.5666547
  80.0843143  66.2087488  21.8467689  78.9101696  65.4912043  22.4772573
  54.9690294  77.3685932  29.4487453  55.1770449  77.3930931  30.3827477
  54.0500402  77.1029806  29.4149232  96.6824722  44.8763418  23.1773138
  97.0492363  45.7601881  23.1541538  96.9227505  44.4951200  22.3328209
  95.5550003  45.7529926  58.1293249  95.8935261  45.4020309  57.3056412
  94.6051598  45.6588507  58.0574036 104.7252941  68.3874559  24.3496466
 104.0955639  69.1077137  24.3796825 105.4282665  68.7073469  23.7842059
  70.6998062 100.9816742  65.2847242  70.1738739 101.7122173  65.6102037
  71.5572166 101.1034584  65.6924677  47.7228165  89.5291901  29.8104429
  47.1602249  88.8219738  29.4948912  48.1741142  89.1564178  30.5678105
  73.2397366  76.0485840  31.0762310  72.6139927  75.9886122  30.3543711
  73.0342770  76.8804789  31.5028143  77.7038383  62.3956394  59.4397736
  78.3136511  61.6954708  59.6724176  77.0601988  62.3979044  60.1482677
  79.7190857  70.4821396  43.6280727  79.0579796  71.1694622  43.5458708
  79.6654844  70.2064705  44.5431471  83.7819195  88.4761810  50.8564711
  82.9431629  88.4255409  50.3980541  83.6452866  89.1390514  51.5333509
 107.9114914  47.5911283  33.0470967 108.7779045  47.9786634  33.1710672
 107.7202892  47.7240038  32.1186447  77.7736139  80.3237247  29.2756224
  78.5169029  79.7230339  29.2215419  77.6366186  80.6169701  28.3748055
 107.6739120  81.8872070  39.0264273 107.8657818  82.8242397  39.0636849
 107.2412682  81.7647266  38.1814098  81.3923359  75.8180475  19.9005401
  82.0221710  75.3508711  20.4494333  81.9307518  76.3803673  19.3436444
  55.5152607  55.0551367  20.3251171  56.1475897  54.6962690  20.9476995
  55.1853800  55.8475876  20.7487082  31.1622287  92.5591850  33.8174438
  31.9297840  92.0177174  33.6332917  31.3957931  93.4263420  33.4862113
  80.3182602  82.7027607  43.2623720  80.5733681  83.1638813  44.0614462
  80.1057053  83.3994198  42.6413059   7.0903590  10.5383968  58.4494352
   6.2740424  10.1795673  58.7974262   6.9410231  11.4832401  58.4145784
  73.8149738 106.0501003  41.4185143  74.3567038 106.0221767  42.2071743
  72.9210472 106.1512947  41.7454386  76.6744137  56.2707233  28.4478283
  75.8864927  56.6113281  28.0242729  76.6112041  56.5765762  29.3526435
  12.6087763   7.0734405   1.6420491  12.2168639   7.8702831   1.9993728
  12.7943518   6.5327262   2.4097884  94.5964622  83.4144115  50.4795408
  94.7247696  84.3463135  50.3025246  94.7836018  83.3200359  51.4135122
  64.2638590  13.5822296  -0.1473971  63.9629462  13.2198333   0.6858833
  64.7230723  14.3868732   0.0932399 110.8964729  81.4904213  20.3956985
 111.3286686  80.6365299  20.4129100 110.8581161  81.7580032  21.3139343
  80.8146667  78.2790613  39.3283963  81.3540745  78.6950350  40.0008774
  81.0096931  77.3453760  39.4085932  75.8827829 106.4081097  19.9716818
  75.8241749 107.2873306  20.3455281  75.3650284 105.8615112  20.5627799
  58.5470438 103.0426884  53.2867193  58.0984449 102.1976185  53.3158493
  57.9322863 103.6249256  52.8402901 104.0705585  66.4482927  35.6845570
 104.6867371  65.7549429  35.4483080 103.9705753  66.9629669  34.8837161
  94.3085624  26.2005805  76.9283199  95.2003575  26.2829780  77.2661734
  93.9084769  25.5214691  77.4714375   4.1224529  98.8984394  62.1616745
   3.7904979  98.6411858  61.3015270   3.8094761  99.7951508  62.2808075
  76.4545536  48.9879847  35.4428482  75.5142450  49.1409588  35.3498340
  76.8584204  49.5942783  34.8219395  25.5235960   6.0471534  71.5813255
  25.7884886   5.4145526  70.9135818  25.1436903   6.7730045  71.0863066
  93.0794525  97.3297596  19.2536759  92.5232220  98.1006718  19.3656743
  93.6163425  97.3046780  20.0457311  83.1360626  57.1808672  37.8693533
  82.9891777  56.9832420  36.9443655  83.4288788  58.0921507  37.8760147
  51.3300896  81.8992996  48.1707001  52.0372963  82.1676636  48.7572765
  50.5312443  82.1932888  48.6084747   5.5639651  84.6465428   6.7956650
   6.2401202  84.3383343   6.1923039   5.5813601  85.5995877   6.7082989
 107.4150753  88.3075619  34.9262857 108.3071327  88.3322525  35.2724910
 107.5165653  88.4801483  33.9902616  86.4951801  93.7827587  35.8953547
  86.6425037  93.6607742  34.9574590  87.2875404  93.4400845  36.3088298
 111.4936400   7.0691680  65.5446053 112.1276856   6.3834190  65.3349257
 111.5093900   7.1259212  66.4999914 108.5694885  78.6085224  45.8626175
 107.6155281  78.5308886  45.8497906 108.7962818  78.6212301  46.7924786
 111.1321449  70.3051329  52.8440094 111.6051102  69.5613527  52.4707460
 110.8167839  70.7942247  52.0840263  93.2121372  62.2711229  15.2593434
  94.1083527  62.5859833  15.3771961  93.2108402  61.3990164  15.6538820
  79.6140957  96.9846821  21.6388702  80.3505230  96.3734531  21.6560316
  78.9685345  96.5985966  22.2308350  96.8812847  61.0881376  44.0211391
  97.8176594  61.1760473  43.8430834  96.5988827  61.9711161  44.2595339
  10.2359630  54.0467787  17.1022105  11.1197139  54.0090227  17.4679911
  10.1298000  54.9570608  16.8259084 103.9816284  80.2748966  39.5254040
 104.0501308  80.5793476  38.6205029 104.1735744  79.3383265  39.4781828
   1.5197994  94.7892189  12.1840954   2.2950698  94.4282722  11.7540920
   0.8263351  94.1560555  11.9984770  90.5259609  98.7269974  24.8401213
  90.3494167  97.8926277  24.4055033  89.6727657  99.0117455  25.1675367
  95.0415611  98.5538483  20.7170463  95.7831097  98.6351490  21.3168168
  94.5813751  99.3899536  20.7904267  89.5722008  75.1164770  76.0584211
  88.8968945  75.2810431  76.7165375  90.0424480  75.9469604  75.9849215
  65.2629855   4.0138721  36.4738822  64.5620253   3.5801696  35.9872556
  64.8073389   4.5839691  37.0932436  78.5347271  75.5933952  -0.1139485
  77.6797295  75.1996660  -0.2876820  78.3496761  76.3093328   0.4938520
  96.9441223  82.5690937  49.3198109  96.5126896  81.8833256  49.8295355
  96.3528728  83.3195114  49.3791914  80.3288555  93.6361504  50.3814077
  79.5299911  93.9989090  49.9987221  80.9663105  93.6549282  49.6675920
 100.1909351  39.8465919   1.7865169 100.5357552  39.3073821   2.4982601
  99.2410374  39.7461319   1.8485038  95.9629440  51.4054251  13.7285233
  96.0225391  50.6469345  14.3093586  95.0538349  51.4068508  13.4289551
  11.0023166  76.2924337   1.9731541  11.4942981  77.1029949   1.8421052
  10.7071258  76.0469961   1.0963095  99.1107845  56.0715628  41.0444117
  99.7209930  55.5255747  40.5486631  98.7349796  56.6632891  40.3925991
  68.1037331  73.4905338  30.0894594  68.9033508  73.1980562  29.6520758
  68.3321428  74.3423414  30.4615903 102.8604889  67.7609873  20.8390450
 103.5652351  67.2014570  21.1653614 103.3009720  68.3964634  20.2747989
 104.0263939  53.5787916  32.1701741 104.6564007  53.1182528  32.7244568
 103.2848740  52.9776001  32.0998764  90.6657696  74.0972185  49.4417238
  91.1861038  74.0137672  50.2407980  89.7796154  73.8500452  49.7060442
  20.5344059  84.6495724   5.7112753  20.4141761  84.4079590   6.6296446
  20.7356025  83.8239193   5.2707613  90.9661388  71.3425827  36.7352915
  90.6007957  71.9109869  37.4132800  91.3794327  70.6276083  37.2192645
  89.2582703  74.7686720  33.8286519  89.8665524  74.9240255  34.5512056
  88.3985901  74.9880505  34.1879153  87.2505951 104.0309715  45.7142496
  87.9232121 103.3953667  45.9588289  87.4658489 104.2728329  44.8134708
  71.5281105  43.6675978  28.0418873  70.6054068  43.4216452  27.9758906
  71.9986486  42.8340387  28.0435300  72.7394342  92.3932934  35.9882784
  73.3239126  91.6745377  36.2291193  72.2084141  92.5425720  36.7705607
 105.8076668  78.1910944  46.2036848 105.8526421  79.1076660  45.9314537
 105.0842667  78.1624508  46.8298626  84.3295765  79.7238111  35.8293819
  84.4196415  80.2930832  35.0651503  85.2256393  79.4600105  36.0384655
  21.5755321  92.5853634  21.9134116  20.6834652  92.3109818  21.7009091
  21.9353916  92.8947544  21.0821390 107.1352386 102.6234341  42.6304483
 107.2216034 103.5419369  42.8856516 106.1938858 102.4946213  42.5142908
  51.1734293  99.9750250  79.8656428  51.0754870 100.1022165  80.8092857
  50.3490732  99.5732849  79.5912826  40.2758025  45.3399103  90.8983608
  39.6586894  44.6369283  90.6953311  41.0095405  45.1944082  90.3011249
  29.4259216 100.2746105  49.7641897  30.2965499 100.3306007  50.1580048
  29.1274215 101.1826324  49.7128582  88.8953114  84.9892044  33.8360643
  89.6366501  85.0303650  34.4401836  88.3902836  85.7807064  34.0223813
  64.4125462  54.8085260  16.6232252  64.4789553  53.9535332  17.0484376
  63.5307693  54.8231030  16.2510800  91.8675900  66.9004107  24.6527290
  91.0770512  67.0635557  24.1382742  91.5817928  66.3108635  25.3505754
   3.6912681  66.4393520  30.0584269   3.1645061  65.7114124  29.7285080
   4.2315437  66.7012119  29.3129277  75.5737972  90.2717113  19.9900126
  75.0143433  89.6968555  20.5122995  75.6106472  91.0878468  20.4888105
  89.9455833  93.5228252  18.5287225  90.2001572  93.9000893  17.6866460
  90.4393005  92.7046204  18.5836613  41.7856409   4.8644065  24.2501831
  42.4655154   4.8172092  24.9223232  41.6350844   3.9535427  23.9974284
  30.0693800  31.0975170  50.1423931  29.5330336  31.0487842  50.9337091
  30.4867938  30.2381992  50.0826645  78.6835145  50.4720705  81.7796767
  78.7043142  49.8156183  82.4760020  79.5603704  50.4430597  81.3969040
  48.5287001  21.4007472  26.1089063  47.5792410  21.3046264  26.1832333
  48.7039092  21.3295745  25.1705742   6.5105869  67.9378128  40.1077700
   7.1890880  67.8954935  40.7816219   6.5213062  68.8487434  39.8139596
 104.7005463  89.9334908  41.5398026 104.7224045  90.6343555  40.8882332
 104.3341160  90.3453064  42.3223400 110.9985352  62.5653887  37.0985270
 110.2960014  63.2124186  37.1620393 111.7984104  63.0864429  37.0283532
  69.1503334  84.0699005  49.5913553  68.8703060  84.0183830  48.6774826
  69.5341301  84.9427414  49.6754217  61.1935902  85.3174877  35.0726151
  62.1363878  85.3887272  35.2219033  61.1110449  85.1641750  34.1313863
 112.6929951  79.6582079  29.4923282 113.0666256  79.4045401  28.6483526
 113.2209873  80.4056358  29.7730613  11.3769294  56.9994736  23.8351297
  10.7882358  56.9748831  23.0807638  10.8171417  56.7897844  24.5827246
  34.8536208   0.2460002   0.8036065  35.3823378  -0.4979992   1.0919800
  35.4866030   0.8591461   0.4299586 103.4033871  59.1395903  59.8484898
 103.4987926  59.0041113  58.9057398 103.0648422  58.3067417  60.1770973
  66.3425206  18.8007324  70.8212102  65.9238671  19.4429843  71.3943303
  67.0849275  19.2687290  70.4390490  93.7687111  98.2728100  55.6017780
  94.7057915  98.2185268  55.4142761  93.3535290  97.7844429  54.8908854
  14.8464682   9.7015666  37.0605898  13.9546683   9.4724178  37.3221445
  15.3796389   9.5068168  37.8313327 112.1821404 106.9904804  38.4518838
 111.4842701 106.4788342  38.0426860 112.9901028 106.6235256  38.0930305
  90.7328606  73.6382771  69.2373896  90.4172993  73.1775808  68.4599495
  91.5420151  73.1843328  69.4728422  85.2753925  96.3285828  51.0035992
  85.5333805  96.9573116  51.6776705  84.4507790  96.6715622  50.6591845
 107.2316457  11.8690776  29.5077634 108.0529309  11.3896369  29.3988872
 106.9635011  11.6835689  30.4077172  81.3375378  67.1843624  63.6702156
  81.0526657  66.4223671  64.1746426  81.9155979  66.8239689  62.9977608
  88.0435085  97.5772285  19.1486204  87.0987988  97.4605179  19.2493296
  88.2783413  98.2190418  19.8188150 103.2020378 103.5943985   8.5025573
 103.9307117 103.3113194   9.0549499 103.0777836 104.5172215   8.7243503
  96.5948200  82.5496769  37.3804402  96.8494797  83.1562805  38.0757165
  97.2360325  81.8410110  37.4341345  44.6097567  12.3014545  64.7245026
  44.0530970  12.4871253  63.9682722  45.3548148  12.8940486  64.6247244
 107.7271271 102.3361015  28.7428737 107.3883724 101.7076111  28.1053209
 107.6510429 103.1846142  28.3064461  40.4359534  14.9345111  54.7725964
  41.3372614  15.2115535  54.6079254  40.1108744  14.6557426  53.9165306
 108.5269928  58.9935112  55.1463795 107.6770973  59.4163513  55.2693605
 108.8854980  58.9147902  56.0304070  22.4062064   0.3136920  20.0092006
  23.1358912  -0.1246071  20.4470086  22.5273611   0.1117229  19.0814269
  74.8419094  88.4447765  26.9198799  75.3329515  88.7029362  26.1398363
  75.4729986  88.5192680  27.6357102  14.3692066  82.0742130  41.6526842
  14.9042656  81.5519619  41.0550308  13.4673549  81.8396282  41.4338827
 103.2972527  80.2612782   7.1481091 103.5890102  81.1728668   7.1375281
 102.7931213  80.1617527   6.3405317  87.3666573  94.1269493  15.2714002
  88.2699871  93.8607693  15.0999868  86.8773270  93.3050251  15.3065026
 103.9554405  78.2952785  73.3022547 104.5962238  77.5874138  73.2347059
 103.9490891  78.5247231  74.2315292  50.3161623  14.6487331  37.1382689
  50.4391005  15.5792331  36.9504023  49.8511984  14.3093776  36.3734961
  91.7720318  95.7417679  33.4673810  90.8647823  95.9004402  33.2066798
  91.9408417  94.8359776  33.2080126   0.4770328 101.8248749  43.3528709
   1.3424446 102.2254848  43.4354258   0.3802158 101.6548252  42.4158859
  97.5164127  78.3070946  44.7491407  97.7134514  79.1974688  45.0400782
  96.5754318  78.3151197  44.5738745  90.5204487  94.3102646  13.7237215
  90.6050301  93.8247776  12.9031265  91.3120079  94.8467064  13.7673223
  93.6267281  65.3170252  21.0875034  94.5414257  65.4801226  21.3176060
  93.3274364  66.1387777  20.6984305   2.8426506  69.8981524   4.7091764
   3.5919143  69.6625137   5.2562761   3.1261875  69.7002888   3.8166019
   3.8382389  78.9167356  64.6470833   3.1515743  78.7734747  65.2983856
   3.9766838  79.8638678  64.6493626  86.7099380  96.0784912  33.0327916
  86.1044407  96.2022400  32.3018432  86.5500832  96.8283653  33.6058211
  89.3528080  80.3151321  57.1290112  89.9061584  79.6757126  56.6804886
  88.5089588  79.8741961  57.2276783   2.9334594  82.5634384  18.3526647
   3.4428169  83.2050037  18.8478220   2.0784809  82.5528049  18.7829351
 111.3666821  88.6047554   1.2609389 111.5799713  88.1882954   0.4258916
 111.9406796  89.3697357   1.3005802 100.8443737  78.0448627  29.5876575
 101.3701916  78.5674906  28.9821744 101.4377213  77.3559332  29.8869109
  79.3281651  73.5630274  50.2877283  78.3724117  73.5578871  50.2353668
  79.5474243  74.4486952  50.5771160  97.2834301  78.6507130  37.5369835
  98.1397438  78.2245398  37.5003552  96.8736649  78.4373713  36.6986465
  87.1350479  92.5653648  19.3967617  87.4223232  93.4485722  19.6283627
  87.5220966  92.4056053  18.5360062  64.9800491  70.7740784  49.9319696
  64.6601152  71.6702223  50.0359201  65.4750156  70.6020403  50.7329941
  35.8920097  51.2395589  87.1167600  36.1998891  50.6190412  86.4561600
  35.6748914  52.0290678  86.6210091  92.7938652  67.9294443  20.1093554
  93.5834026  68.1168318  19.6016741  92.9642963  68.3155155  20.9685016
  17.5556376   1.1197280  19.8423755  18.4902384   1.0164832  20.0215483
  17.3537734   2.0104122  20.1290369 112.6178932 101.5804100  67.9853821
 113.1093597 102.2660542  67.5330830 112.2000885 102.0300484  68.7198877
   9.4131663   5.6802463  11.4589679   9.7679522   5.2087211  12.2126436
   8.6120608   6.0884857  11.7872989  82.3527050  91.4901829  15.6459856
  81.9111538  90.6462860  15.7413840  81.7819977  92.1115685  16.0980940
  88.1035328  83.0315590  16.8347514  88.6261749  83.5244560  16.2022007
  87.3156071  82.7821636  16.3518322  35.7597544   9.6016597  19.8310971
  35.9311297  10.4051971  20.3222132  34.8298933   9.6502494  19.6092451
  84.0538025  58.1411886  64.2823219  83.3216572  57.5404501  64.4212675
  84.2231560  58.0987453  63.3411789 111.2288380  83.2149315  27.6520443
 110.9017086  83.8605881  27.0256662 110.4520988  82.9375744  28.1378174
  84.7124577 102.7105904  39.8554015  85.0095177 101.9066811  40.2816725
  83.8678551 102.9003048  40.2639294  86.3555336  58.4571362  28.6508203
  86.3711262  59.4010067  28.4924102  86.7109776  58.3565712  29.5338702
 109.0036678  57.1536970  42.5435448 109.3484116  57.3362970  41.6694498
 109.6583557  57.5169563  43.1399202  15.0734378  92.9290199  22.5634742
  15.4548885  93.7608719  22.2828531  14.7974063  92.5057507  21.7505312
 111.7637634  59.9060631  76.2305927 111.8270302  59.4162655  75.4106331
 112.6475525  59.8750639  76.5968990  93.0316162  47.7436686  19.8680568
  92.6202393  47.8295469  20.7280731  93.9239311  47.4535036  20.0572824
  91.9258976  92.1371174  49.8040915  92.1184063  93.0615997  49.9606514
  92.3120594  91.9537640  48.9476490  83.3427811 103.1202030  53.8249969
  83.0065536 103.0802536  54.7203112  82.5647736 103.2491684  53.2825089
  12.3497726  98.8178635  23.0998564  12.5969936  98.5737705  22.2079325
  12.4613811  99.7681236  23.1277752 103.1871223  70.8519697  35.0457788
 103.4566402  71.2822390  34.2343235 102.5307465  70.2118015  34.7708559
  33.1488847  54.6601121  89.1914302  33.2416200  53.7336271  89.4133574
  32.5419234  55.0038259  89.8469365 106.5314770  85.3984070   3.6148605
 105.8864880  85.4848099   4.3168277 106.0163307  85.4435825   2.8093702
  42.9769328   0.6430244  26.5908217  42.3686697   1.2881088  26.9515371
  43.6037734   1.1610412  26.0858893  94.5137310  77.7364874  40.4169464
  94.4594097  78.1126022  39.5384145  93.7795544  78.1274176  40.8906555
 104.4357777  61.6601086  44.2273760 103.7044048  62.2690630  44.1249609
 105.1386452  62.0390081  43.6995077  90.0265980 104.2421532  19.7821271
  90.6712627 103.8733959  20.3859949  90.0988388 105.1888752  19.9034846
  12.0421268  90.4069138  32.6174545  12.6692344  91.0682106  32.3247814
  11.5463211  90.8383751  33.3133340  13.6252119  21.5406036  36.5211129
  12.8313830  22.0736217  36.5652609  14.0046217  21.7463016  35.6667304
  74.8292303  85.5238342  32.6858640  75.5368567  84.9340534  32.9459643
  75.2302074  86.3930035  32.6843810  20.8766367  26.7830467  51.9904518
  20.7852080  25.9022903  52.3539543  21.7880537  27.0196819  52.1623468
  92.9878616  78.5220909  71.0068369  92.5298119  77.7871895  70.5989885
  92.2887230  79.0945339  71.3226700 110.4349709  83.3286285  34.9111485
 110.2501774  84.2315006  35.1698017 110.7870579  82.9201984  35.7020068
  98.7226772  60.5958652  74.8334837  99.6214008  60.7890558  75.1003122
  98.7773418  60.4616594  73.8873196  94.0998173  93.4789085  31.0923767
  93.1523895  93.5457325  31.2112832  94.4573689  93.5413551  31.9780922
  21.0525943  91.0080528  41.8190670  21.1953689  90.4454041  42.5801611
  20.1591064  91.3341808  41.9265461  94.2033482  81.8144989  22.9408145
  94.1046619  80.9169292  23.2584071  95.1333618  81.8924141  22.7281356
  23.3263876   3.1814479  19.8523319  23.0962756   2.4698257  20.4497170
  22.7940848   3.0215358  19.0730274  25.9971096  95.0968742  27.2712421
  25.3257133  95.7628536  27.4193192  25.7456066  94.6826172  26.4457870
  98.1167698  88.6549568   3.7837979  97.8713608  89.0418053   2.9433477
  98.9400387  88.1998730   3.6067206  66.7638636 102.0288658  20.7553983
  66.8490410 101.4196110  21.4887404  67.6525259 102.1135998  20.4099512
  56.6271447  21.8009775  81.4510191  56.7479657  22.7012365  81.7529548
  57.2594117  21.2914722  81.9578469 112.9448795  84.2160320  21.1555290
 112.3767757  83.6043453  21.6238594 113.2620716  84.8142529  21.8321037
  81.7966557  76.4079857  71.0428429  81.1009979  77.0202112  70.8030844
  82.3354149  76.3371038  70.2548409 109.8982811  56.7822504  17.5092351
 109.6503067  57.5068760  18.0833924 110.5185795  56.2683916  18.0263603
  38.7327101   1.1017513  35.7865334  39.2684081   0.4204082  36.1927795
  39.2410757   1.9049739  35.8989787 100.3514290  92.4698639  35.6593370
 100.5744362  93.1188679  34.9920297 100.6216431  91.6336441  35.2799225
  69.0343237  97.2081566  53.4448242  69.6753168  96.5512085  53.7164402
  68.4235859  96.7295074  52.8843594  88.9212894  90.4368687  62.6301050
  89.4178867  91.2551689  62.6309395  88.2215691  90.5819893  61.9932652
  12.6082709  28.2977008  15.6146371  12.3745921  29.1048240  16.0730827
  12.8692725  28.5860156  14.7400010  96.1043262  92.0320892  51.7286396
  96.6306591  91.8007374  52.4939346  95.2228355  91.7267036  51.9429970
  85.7162189 104.2902756  53.1458378  85.3589821 104.9710941  52.5756741
  84.9545956 103.7726688  53.4070635  16.0921241  95.2224922  11.9199252
  15.8564998  94.9561691  11.0312247  16.9845440  95.5593681  11.8403435
  53.9079478   2.1417713  16.5729141  53.9108279   1.6701602  17.4058628
  54.0300181   1.4606189  15.9115815  83.8570118  95.9117508  27.0405197
  84.6803188  95.9408665  27.5279093  84.1112518  96.0693455  26.1312556
  56.1173916  79.7830105  28.2401061  55.7062721  79.0394306  28.6809015
  56.1419201  79.5306158  27.3171067  87.9924488  85.8180809  21.4950895
  87.2506428  86.2139511  21.0376549  88.2465458  85.0780106  20.9437585
  94.8466682  63.9212370  38.5445714  95.1832771  64.7504616  38.2050061
  95.4053497  63.2544374  38.1452274  83.0286980  62.2966528  45.2912474
  83.6156940  62.8847075  45.7664919  83.3373070  62.3304796  44.3857956
  95.5167198  89.6690655  44.0653133  94.7736931  89.5275211  44.6519232
  95.9914589  88.8379478  44.0752935  41.9733428   6.7425363  76.7801154
  42.1312093   7.5046842  76.2229467  42.7796792   6.6449802  77.2866130
  27.9176380  65.5339146  14.2372274  28.5353233  65.2475929  13.5643864
  27.0942165  65.1048565  14.0046215  85.4858780  59.6602154  40.4651546
  86.1988163  60.2749968  40.2919722  85.1583099  59.4227982  39.5976520
  95.8973503  55.3061056  57.9347277  95.6122112  54.4882965  58.3423042
  95.6712914  55.2044868  57.0101738  11.0935786  16.8387889   7.6936835
  10.2691748  16.8286228   8.1799924  11.1060622  16.0037517   7.2259462
  83.8416958 106.1389160  22.7911973  82.9730415 105.7700825  22.6310754
  83.9793015 106.0280132  23.7319398  87.8877831 102.0901775  21.0979843
  87.3123741 102.7557182  21.4750719  88.7515068 102.5023842  21.0804653
   4.9750854  67.1399164  27.7102017   5.0516178  68.0827284  27.5636482
   5.7132484  66.7624617  27.2317958  91.2076092  73.3205271  32.4828172
  90.4061699  73.6059999  32.9214835  91.1596394  72.3646069  32.4946237
  50.5512431  13.0119037  43.7501049  51.3522341  12.6040935  44.0792418
  50.4554179  12.6688289  42.8616571  75.7981491  97.9445934  35.3728414
  76.4482641  97.4277782  34.8969364  75.9853125  98.8504314  35.1265502
  55.6510686  59.5339887  91.9408146  55.0335931  59.5007150  92.6714640
  55.2929067  58.9233510  91.2965481  97.9306412  71.9173908  70.8820152
  98.8518810  71.7680502  71.0947227  97.6060867  72.4667263  71.5955448
  21.0677054   0.0987815  12.2730303  21.8624880  -0.4052353  12.4477017
  21.3632395   1.0086631  12.2412109   0.0485374  83.3313560  15.7263875
   0.2928783  83.7197113  14.8863256   0.8079769  82.8053665  15.9770274
  12.6458694  55.0222874  33.0637765  12.7859928  54.2564487  33.6206293
  12.3972751  54.6583366  32.2140861  87.8065442  72.0040433  87.4488980
  87.4532365  72.6085012  86.7961830  88.6665105  72.3632162  87.6672739
  87.3296261  93.3177280  49.1735506  86.5426731  93.0884171  49.6678686
  88.0464077  92.9159927  49.6645212  32.2588491  42.9351251  89.3508694
  33.0159043  42.6949995  89.8851303  32.0377826  42.1344678  88.8751477
  67.2005701  77.1839428  30.4756975  66.9467211  77.1920586  31.3985896
  67.9464912  76.5852880  30.4377174 106.2383556 103.9380360  37.1441984
 106.3111305 103.5030842  37.9937601 107.1364975 103.9723015  36.8149519
  93.9315128  75.7630634  25.7213759  94.6692753  75.7255268  25.1126647
  93.1715775  75.5215120  25.1918578  83.7226295  70.6020689  18.4926796
  83.7464428  69.9027395  19.1458297  84.1818523  71.3325644  18.9070749
  93.2345963  75.3254986  46.9945478  93.7956333  74.5536852  47.0705414
  93.3518982  75.6188345  46.0909843   2.4184563   4.0811729  27.2380400
   1.5418436   4.3541335  26.9673347   2.2924187   3.2104396  27.6150942
 105.9366703  77.0788527  37.4921536 105.7881451  77.6907110  36.7711830
 105.2036953  77.2295570  38.0890393   4.6368362  94.7570515  34.5933628
   5.3453971  94.9346447  35.2119327   4.3792202  95.6203461  34.2699599
  96.3600349  88.8893509  57.0134306  96.1251736  89.5011425  56.3157368
  95.5311012  88.4808350  57.2628546  12.2353365  10.6845474   8.7638110
  13.0692961  10.8389377   9.2075545  11.7374613  10.1389694   9.3726587
  28.3193256  99.8655224  61.4147997  28.7977077 100.6090069  61.7816877
  28.7847091  99.6575260  60.6046200   6.4603187  96.2745380  27.7749181
   6.2390472  96.6647720  26.9293499   6.5426971  95.3384972  27.5925040
  66.0705899  50.6275384  91.7535581  66.2475919  51.3283079  92.3811125
  66.8895387  50.1340692  91.7082836  16.6840889  67.9640245  13.9236128
  16.8027164  68.6647177  13.2823741  17.3134758  67.2916365  13.6628437
  77.0438719  71.2089872  63.7872505  77.1848822  71.9667482  64.3548250
  77.3172188  71.5057325  62.9192305  48.1682347  41.5046899  91.0950333
  48.1606053  40.9503286  90.3147403  47.3205423  41.3455980  91.5101621
 110.6431389  81.9008636  42.8795815 110.5034924  80.9693432  43.0498314
 109.9343109  82.3392773  43.3503056   0.8258010  96.6504955  42.4532843
   0.5500270  97.3875046  41.9083214   0.0442649  96.4175987  42.9544878
   8.9657737 103.5424232  19.2099655   8.3177902 103.1618977  19.8028886
   9.1518165 102.8462982  18.5798597  11.7741682   8.2603931  52.1826649
  12.6534274   7.8841876  52.2228765  11.9099715   9.2001438  52.3036957
  60.5427837  74.3829203   5.5034375  61.2266111  74.0759802   6.0987514
  61.0016441  74.5590925   4.6820724  99.8935986  73.6855936  29.3579245
 100.6945133  73.3745003  29.7798133  99.5733070  74.3795109  29.9342299
  12.4445678 101.5703964  22.8274870  13.3301117 101.7719460  23.1298614
  12.0581867 102.4240208  22.6318622  65.1770401  84.8446751  30.7137775
  64.7726059  84.5045662  31.5118980  64.8034573  85.7198429  30.6101584
  77.2096252 106.2733459  10.4740417  77.2450781 105.3514004  10.2191341
  78.0202103 106.6483784  10.1297581  88.8784122  83.6721134   2.5145459
  88.9522743  83.9508343   1.6018066  89.5255280  82.9725552   2.6044753
 103.2867527  63.8102102  28.6477590 103.0223751  62.9162884  28.8651228
 103.2580376  63.8426542  27.6915407  44.0442374   1.2844467  16.6740692
  44.5008948   0.7538127  17.3268485  44.2344477   0.8544826  15.8402920
  26.7649986  86.6234875  19.9082792  26.6960289  86.8471813  20.8364153
  26.5182354  87.4264622  19.4494021  84.9105930  90.2708530  32.1292543
  85.6444645  90.1128769  32.7231383  85.2252483  89.9739361  31.2754035
 106.2116909  39.7258711  29.9927616 106.2411404  38.9723444  29.4032145
 105.7511616  40.4014969  29.4950867 109.2431165  17.3447704  24.6925569
 109.2355967  16.4332961  24.9847531 109.5085479  17.2996520  23.7740040
  35.2627184   9.7628116  27.0300460  34.9693396  10.6540965  26.8409252
  34.4857695   9.3231105  27.3753452  47.7649214   8.1939601  15.4631019
  46.9051363   8.6038684  15.3682566  47.7034380   7.6940345  16.2770569
  19.4519904   0.9290122  45.1026821  18.7977030   0.9205245  44.4040632
  18.9796355   1.2537002  45.8692884 110.8471489  86.9309807  53.9348078
 110.3748608  86.1960602  53.5435820 111.0566902  86.6364479  54.8211336
  96.6040897 100.0756264  18.3212936  96.1923027 100.7537079  17.7857006
  96.5618896  99.2859364  17.7820039  10.1243831  78.9415598  19.9424160
   9.7983791  79.3783808  20.7292724  11.0539009  78.7948370  20.1176190
  85.5551243 106.8687057  42.1898365  86.4550591 106.9474125  41.8733597
  85.2089214 106.0989475  41.7383480  85.0865936  90.1673698  40.3441429
  85.9447765  90.1110268  39.9239254  84.4670582  90.2249622  39.6167564
  91.3939857  98.0154610  29.4855309  91.7346573  98.9096451  29.4609714
  91.6240120  97.6479912  28.6321306  13.5148956  80.6192684  24.6775389
  13.0043556  79.8246574  24.5220804  14.4182064  80.3122520  24.7550511
  94.9458885  73.7178421  63.5690403  94.9382401  72.8503847  63.1644487
  94.6178246  73.5712242  64.4562340 104.2906761  83.1131935  42.6978922
 103.6651134  83.2636356  41.9891882 104.9715424  82.5673771  42.3045254
  12.3210289  54.9383593  65.2588320  11.8918373  54.4689751  65.9741688
  11.9232990  55.8089304  65.2709436  96.9266605  75.3593731  46.3214445
  96.4296150  75.5357361  45.5226517  97.7048206  74.8901081  46.0206413
  66.9591713  85.3030777  46.4049292  66.5277767  85.1173687  47.2389793
  67.3498535  86.1686516  46.5248537  20.4491283 101.5173340  36.2669373
  21.2015487 101.4261723  36.8515611  20.7962944 101.3195324  35.3971243
  40.6220820   1.8088436  66.0429764  39.9838927   1.5453243  65.3800249
  41.2040427   1.0537338  66.1287260 107.3859120   2.8619956  13.7415254
 107.1231414   2.9892349  12.8299379 106.8737555   2.1086692  14.0355015
  79.4456959  58.2680130  13.4631574  79.8560905  59.0049839  13.9155757
  80.1431084  57.6171970  13.3839238  13.5017826  76.2866306  28.7660170
  14.1027881  75.7834816  29.3154407  13.5220005  77.1695471  29.1351795
 110.2259159  90.7215118  44.7658443 110.2485466  90.6278133  43.8135099
 111.1049843  91.0207939  44.9980211  52.4843218  16.1147880  22.8149223
  52.5855353  15.1906299  23.0427647  51.5484908  16.2862777  22.9200006
  86.8228245 102.3956299  33.9229727  87.1116829 101.5477276  33.5855556
  87.4852753 102.6335526  34.5716548  17.9530528   4.2207527  34.9429822
  17.7609637   3.7873077  34.1114426  17.1426012   4.6778488  35.1676416
   0.6619598  92.4659634  29.3525171   0.9842731  92.0259285  28.5659313
  -0.1448868  92.0008087  29.5735836  90.1841927  92.5073910  42.0252228
  89.8137760  92.6765251  41.1589622  89.6132088  91.8387222  42.4034834
  73.1645393  80.9669876  36.7357039  72.8696871  80.5070782  35.9497213
  72.5632191  81.7069530  36.8199873  83.3701134 104.9014378   2.8393570
  82.7452755 104.2009068   2.6520875  83.7630558 104.6544361   3.6765021
  50.9368134  99.4028759  84.6904850  51.3978243  98.5683346  84.7756100
  50.7804823  99.4953728  83.7506866  85.0570488 104.0511703  56.1183500
  84.3991852 104.7406197  56.2084293  85.5863953 104.3217564  55.3681374
  25.2362873  96.6378784  33.9310718  25.0780918  95.7525349  34.2587495
  26.0738899  96.8908310  34.3192410  96.6665363  84.2094803  52.3645115
  97.3799610  84.7654819  52.6777697  97.0633507  83.3441162  52.2648764
  74.8470639  30.6561773  86.5183717  75.6164025  30.1158636  86.6984135
  74.8846101  30.8199422  85.5760330  98.9084053  75.7717228  53.6964607
  99.6472073  75.2321482  53.4149408  99.1331959  76.6557693  53.4063530
   9.6467593  12.4532699  47.3556566   9.6221068  13.2374095  47.9040670
   9.0003016  12.6202678  46.6697788  38.3189725  88.3951164  12.7961862
  38.1500768  88.0396784  11.9236207  37.6142310  88.0419684  13.3391941
  39.2574549  35.2881885  14.1695225  39.0418720  34.3918061  13.9121282
  38.5161519  35.5680346  14.7065401  33.3094883  16.4709568  45.9972191
  33.8119698  15.7203102  45.6805611  33.2432294  16.3334000  46.9421673
  95.0352761  35.9393089  86.5538729  94.5929190  35.0980299  86.6670251
  94.9476287  36.3721340  87.4031151  95.7581803  53.2280771  91.2742268
  95.5638692  54.1143713  91.5791160  96.5789220  53.3160600  90.7895914
  23.1875443  10.4061818  33.3430099  23.2226849  11.3276064  33.0861545
  22.6985097  10.4053974  34.1658568  99.2493079 105.9996855  11.8516147
  99.0069864 105.7447674  10.9613729  99.6670673 105.2205346  12.2185361
  63.6707067  20.8942533  24.4333220  64.5805883  20.8531141  24.1389441
  63.1698561  21.0774589  23.6384535  82.3007056  61.6629081  80.2659846
  82.8195187  62.3949247  79.9324894  82.9083487  61.1704516  80.8177913
  47.6614714   9.5858395  22.8868604  47.2737932   9.4840634  23.7560987
  46.9114256   9.6311420  22.2938967  89.3371007  48.0806207  85.8783925
  88.5557505  47.5504898  86.0355181  89.3445059  48.7146869  86.5954268
  39.4510937  48.2941818  51.8333721  40.3489733  48.6232042  51.8756771
  39.4386506  47.5534105  52.4394560  77.6917553  12.0529270  19.7861195
  77.2396326  11.5482116  19.1100454  77.1377420  11.9645762  20.5616808
  45.9020233   7.4251419  30.0219750  46.5745687   6.7560875  29.8943806
  45.0898695   6.9305265  30.1315141  57.2759199   2.2631711   0.0098767
  56.7040253   3.0225924   0.1214513  58.1620979   2.6228383   0.0493217
  85.7525444   1.9317335  44.7394753  85.6273460   1.5652300  43.8641262
  84.8828506   2.2366303  44.9981165  53.0415391  84.0053702  26.7243123
  52.6020097  84.2700744  25.9162426  52.9033994  83.0594588  26.7733073
  85.0577831  16.1828828  32.6732588  85.7699490  16.0207820  33.2919455
  84.3869305  15.5412960  32.9068136  90.4787299  32.0748394  75.4562021
  91.4031455  32.1664422  75.2253473  90.2594516  32.8957360  75.8969736
   1.9612884  91.4081574  40.9846067   1.6520189  92.2682965  40.7004499
   1.1758708  90.8610559  40.9901762  74.5256329   5.4518050  12.7807295
  73.7189531   5.0305218  13.0774176  74.9363422   4.8052835  12.2066557
  59.3044900  92.4077631  32.8731203  58.5396814  92.5386096  32.3126125
  58.9419126  92.1093524  33.7072182  51.1602449   8.9771318   9.3551397
  51.2839031   9.3656749  10.2211511  50.9258890   9.7153324   8.7926722
   6.9892453 102.7060751  53.7067127   7.9447745 102.6513899  53.6924887
   6.7947721 103.5850117  53.3813143  85.9049412  49.3600606  76.3709641
  85.8577964  48.4800216  76.7445147  85.3558013  49.8937684  76.9452751
  73.8595915  25.7489944  40.9478426  74.2154741  24.9009156  41.2130547
  74.0582228  25.8104873  40.0134993  68.0479765   9.4106531  17.7838600
  67.4393272   9.9935412  18.2377589  68.8818312   9.8805702  17.7934515
  41.3761138  65.9608460  25.7522869  42.2254275  65.5937768  25.5070233
  40.7626723  65.2328921  25.6522369  55.8708525   6.8196028   9.3238509
  54.9588299   6.6059572   9.1268605  56.0761690   7.5520116   8.7427700
  47.3012400   3.9055848  42.8759861  46.6525936   4.2075250  42.2401237
  46.8598747   3.2028764  43.3530951  48.5551453  53.5739946  12.8673899
  47.8067493  53.1617737  12.4358714  49.2868805  52.9812241  12.6958632
  65.1625633  15.1766264  20.5024242  65.3092384  15.9412599  19.9455988
  66.0349035  14.8051560  20.6338263 105.9733007 102.7606518   7.9231513
 106.6306231 102.1281374   7.6331776 105.6150863 102.3826522   8.7262899
 112.8152796  61.7064219  60.7957089 113.3738944  61.3023531  60.1316965
 113.4222647  61.9883560  61.4800465  93.6814448  69.4820386  89.1196046
  93.2128617  68.7347155  89.4913173  93.8105723  70.0757425  89.8592487
  53.4679365  25.5579114   1.8236166  53.9900732  24.8883772   1.3816568
  53.0920744  26.0766888   1.1123991  56.5683603   1.5418121  54.0916300
  56.6796255   2.4344528  54.4188070  56.1185074   1.0813922  54.8000622
  18.8245893  43.7759113  30.5847526  18.7102604  44.7246456  30.6400919
  19.7341716  43.6598921  30.3101015  41.1642122   6.6485596  36.4380312
  41.5007353   6.9492406  35.5938911  41.1921406   7.4248886  36.9972849
  28.4635400  87.4381531  24.3490815  28.1971883  88.1606341  24.9176860
  29.3766212  87.6274717  24.1330457  29.0223694  37.8171515  42.4875450
  28.8780427  38.6765289  42.8836107  29.0510154  37.9889727  41.5463257
   2.8408336 102.1992180   0.9786504   3.3403777 102.3750032   0.1812872
   3.5061072 102.0275653   1.6451201   1.7687844  77.4796312  73.9653397
   2.0353506  78.2313102  73.4360433   2.5836609  77.0089167  74.1403878
  97.1981239  61.3974094  22.9663801  97.1261883  60.6334352  22.3941922
  96.3167095  61.7704487  22.9798007  64.9700832  17.2645545  25.7288790
  64.5315838  16.4142621  25.6979680  64.2605782  17.9027724  25.6546354
  26.0454129 102.5091628   6.8500429  25.1682805 102.3259023   7.1866202
  26.2216949 101.7939061   6.2388444  41.1375284   8.2864362  26.6560555
  40.3803253   8.3619553  27.2367191  41.3314962   7.3493087  26.6360521
  75.7761765   2.2863026   6.8554497  75.8075619   1.4164156   7.2536254
  75.3838396   2.8434137   7.5277066  94.0108487  89.7496694  73.8590587
  94.1670891  90.5617731  73.3770740  93.5044381  89.2064040  73.2552052
  39.5161462  31.9455600  48.3221912  38.9024782  32.3875737  48.9089298
  39.0030837  31.7579412  47.5361872  70.9421495  63.7716199  29.4512200
  70.9146736  62.8311873  29.2749667  71.3178868  64.1531230  28.6578035
  61.3435698  30.1072049  12.5457513  61.5946865  31.0003257  12.3101521
  61.4821434  29.6004701  11.7455959   8.0528592 106.2555773  42.7898359
   8.1163739 106.2314444  41.8350506   7.1826171 105.9057192  42.9809046
  45.5557679  68.9943863  21.8571448  45.2835035  68.5894538  21.0336542
  45.3726434  69.9263001  21.7378402 101.0519788   0.3402155  84.6030504
 100.6263110  -0.1220400  85.3251016 101.7824456   0.8036059  85.0128270
  10.6522035  92.0064211  25.6847024  10.8985709  92.7758587  26.1980247
  11.4852046  91.6384304  25.3898787  23.2403897 103.6023844  10.1000404
  23.2145118 102.6519541   9.9893868  22.3509597 103.8915447   9.8962486
  54.9352264  18.9400065  13.6042762  55.4360342  18.1356812  13.7402403
  54.7831059  19.2794168  14.4862580 107.1229003  97.3689610  25.1386142
 106.7053769  97.3975659  25.9994793 106.4425895  97.6624728  24.5325923
  35.0439214  79.2745829  25.3330541  34.6087932  79.5142699  26.1512518
  35.7732534  78.7170292  25.6040525  29.0707540  76.7276908  29.4609904
  29.6967124  76.0338951  29.2534995  29.5108413  77.2560597  30.1268554
  89.6937275  22.1863627  37.8182864  88.7396908  22.1918821  37.8958488
  89.9215031  21.2608576  37.7300143  33.4552336   6.2585908  15.2291775
  32.5946403   6.3560599  15.6367433  34.0755987   6.4805967  15.9235060
  32.6361275  13.5551655  18.1850076  32.9011393  14.0653419  18.9503312
  32.7309871  14.1601372  17.4493146  31.9528674  87.4896241   6.1496794
  32.4027156  88.0997050   5.5651522  32.6284408  86.8622304   6.4069903
  44.8173809  21.7873478  13.8216782  45.6920958  21.9923091  14.1519809
  44.6214342  22.4948621  13.2074618  53.5671806   2.7131599  22.2708321
  53.6375523   3.5870868  21.8867350  52.7183771   2.3875216  21.9712853
  15.5099404  10.6629872  55.0722218  15.7112551  10.0663066  55.7931042
  16.1117816  10.4062128  54.3735886  71.2923261  79.4839495  79.5170832
  71.4506385  80.3175061  79.0739680  70.5513808  79.1002768  79.0480125
  72.6689405  86.0563899  29.0856171  71.9779000  85.7899452  29.6920013
  73.0513712  86.8370164  29.4863653  32.4997187   6.3072765  35.3496480
  32.3959041   6.8958902  34.6019912  33.1524301   5.6685811  35.0628233
 100.0807927 105.0362231  34.0374899 100.8862636 104.7916276  34.4931459
 100.1896427 104.6853665  33.1535888   3.6425637  65.6106847  83.8310773
   4.5005034  65.1943880  83.7481898   3.5634993  66.1544996  83.0473394
  71.4392614   2.1799618  20.5321026  71.6194153   3.1175822  20.4639506
  72.2312212   1.8117554  20.9238362  53.6066675  44.7311401  39.1666436
  54.1021729  44.5308971  38.3725357  53.7750864  43.9892197  39.7475219
  90.6603909  11.0117817  36.2298274  90.8147812  11.7337406  36.8390656
  91.1476612  10.2764475  36.6014218   5.6402682 105.0036945  18.7013054
   5.8306884 104.1426749  18.3289933   6.1743306 105.0450543  19.4945860
  88.4013271  13.3780158  19.2086256  88.4392643  14.0168774  19.9204183
  87.5002766  13.4281909  18.8895285  78.3262062  33.7432361   8.6655915
  79.2337656  33.9586353   8.4507126  78.0843019  34.3743157   9.3434215
  24.3369818  48.3900595  28.1405854  25.0225258  48.9071274  28.5635448
  24.7703886  47.5725603  27.8954625  60.4965162  11.0440731   5.0385708
  61.3107824  11.5418065   5.1124901  59.8981810  11.6309798   4.5762238
  62.6765156  13.3211184  45.2661657  61.8983650  12.8908980  44.9117184
  63.0707598  13.7613165  44.5131493 111.9035289  92.9229873  83.8305539
 112.1350857  93.0223125  82.9071105 111.9759175  93.8063686  84.1919870
   2.7890251  32.7502125  87.8977934   3.5465000  32.3545926  88.3290127
   3.1409071  33.1216806  87.0888293  39.9774909  36.9548655  34.5202422
  39.1804957  36.5493512  34.8616910  39.8301768  37.0149875  33.5763597
  58.2132959  15.2682233   8.8772124  58.2665682  15.7870591   8.0745894
  57.3857880  14.7932100   8.8008666  71.2958860  39.0567374  33.7646985
  70.9567690  38.9878583  32.8722358  72.2466755  39.0859246  33.6580491
  54.9496126  67.9777956  22.5674891  55.2995157  68.7232351  22.0795107
  54.2021990  67.6811695  22.0482469  12.9265212  90.3769112  12.9763782
  13.0266141  89.7399819  12.2688937  12.4236249  91.0916222  12.5858450
  54.7539376  28.7219732  91.1910554  54.6085786  28.7016218  92.1369357
  53.8827085  28.6048810  90.8122740  43.2496690  83.5048986   5.2639955
  42.9424333  83.4698821   4.3581167  43.8835858  84.2220235   5.2743614
  16.7545556  98.8394809  23.6167097  16.4929675  97.9630602  23.8990021
  17.6177167  98.9699108  24.0093637  17.1660709 101.4454330  27.1797967
  17.1985292 100.4990900  27.3198485  17.2191428 101.5489042  26.2296867
  30.7979918  33.3691359  14.9784732  31.4330435  34.0568852  15.1783311
  30.9792280  32.6820660  15.6198168  38.0555724 105.1719475  15.9111464
  38.3116244 105.6750410  15.1381218  37.9316806 104.2801273  15.5862784
  49.9712563  15.7329404  19.1725922  50.4441452  16.2080741  18.4893239
  49.2229795  16.2928259  19.3795836  50.4958391  26.6197491  32.8720546
  50.2302217  27.3803329  32.3551464  49.8374557  26.5587831  33.5641837
  54.5649147  30.2254677   6.9603378  54.3306923  30.4343748   7.8646213
  53.8579321  29.6569753   6.6550201 103.2078883  91.3605707  73.4278941
 103.6903712  92.0161336  72.9242277 102.6137921  91.8709033  73.9782060
 113.1301212   8.9567298  26.1758089 113.9099598   8.4093523  26.2677813
 112.4031830   8.3347571  26.1451960  89.9483871   2.4696045  37.4011230
  89.1031456   2.9082078  37.3040533  89.9592018   2.1688432  38.3097792
  16.1589717 106.5093181  15.3968680  17.0553588 106.3422912  15.6881094
  15.6723212 105.7279864  15.6594050  47.0277643  43.3442545  32.2162437
  47.3055077  43.4708977  33.1234670  47.3757648  42.4852753  31.9769049
  73.7291527  27.0676994  24.0848947  72.9770708  27.6183009  24.3027115
  73.3765888  26.1780429  24.0639114  77.1911526  26.2953019  42.9074287
  77.4159908  26.1306524  41.9916964  78.0270910  26.2487650  43.3714008
  60.4262972  14.5504427  30.6508541  59.5045710  14.3323255  30.7889986
  60.8815432  13.7099707  30.7017446 113.0273769  95.0552536  50.0734520
 112.7885625  95.9531308  49.8432016 112.6657889  94.9286903  50.9506464
  80.4365158  37.4679375  21.9608307  79.6583700  37.3307896  22.5011134
  81.0455704  37.9354978  22.5323820  62.3617983  26.1521530  47.2534943
  62.7039433  26.4649963  46.4160585  63.1380844  25.8789802  47.7423668
  16.7022609 101.1240757   9.9687904  16.6359662 101.1662025   9.0148187
  17.4217605 101.7170996  10.1853013  19.9321818  51.3829374  32.8437471
  20.0115442  51.3733387  33.7976027  19.8610270  50.4600239  32.6000285
  76.4344501   9.5346993  36.4634800  76.4339972   9.9662703  37.3178673
  76.5894985  10.2423108  35.8377981  19.6304083  27.1725965  57.5580311
  20.4845619  27.5832748  57.4238777  19.2952645  27.0226359  56.6740513
  18.7320041  86.6873479  41.3354540  18.6440229  87.1472157  42.1703243
  17.8727721  86.2921072  41.1880112  24.2452859  70.8747340  12.4436009
  23.3509969  70.5355692  12.4056756  24.2544746  71.4401055  13.2159364
  42.6362561 103.1895930  35.1726913  42.6791715 103.7762198  35.9278464
  41.8707608 102.6397428  35.3397346  77.5322390  37.1097350  21.4506078
  76.7638683  36.7348957  21.8811107  77.4963522  38.0417943  21.6655612
 106.8773124  95.7835103  35.7726264 106.9378660  96.0069168  36.7014194
 106.7879889  96.6268564  35.3287578  78.6490250  50.7861662  30.6701016
  78.3048296  50.6694937  29.7845817  78.6008930  51.7297840  30.8233833
  65.6295824  43.7342930  16.0168457  66.4759064  43.4070730  15.7120514
  65.8109999  44.0962029  16.8842208  21.7628335 106.1197932  59.7352314
  21.8517160 105.3465817  60.2924347  21.5152072 106.8216222  60.3371811
  65.0968647  10.4877150  38.0095720  64.8507214   9.8168725  37.3726916
  65.5230951  11.1679995  37.4882555  80.0478265 103.6487024  86.7171896
  80.4316518 103.7979143  87.5812763  80.2086779 104.4626539  86.2398655
  31.9353914  23.4960699  37.2630286  32.0011234  22.6761508  37.7525640
  31.1075330  23.4255385  36.7877316  11.3384675 103.4678186   4.2358533
  11.1911678 104.3665964   3.9413476  10.4596185 103.1065089   4.3512228
  22.2688293  28.5532331  10.6353164  21.6659641  27.8162932  10.7338202
  23.1214952  28.2008839  10.8903527  69.7837162  46.3456345  19.7726905
  69.3311739  46.8882513  19.1269374  69.0803623  45.9206915  20.2635574
  59.9729156  33.6685967  25.3607178  60.2319479  33.3863401  26.2379098
  60.3926992  34.5216680  25.2498960  62.9180431  30.9027600   9.6654892
  62.1002340  31.2959933   9.3608797  63.2638741  31.5304804  10.2999973
   6.3749267  11.6367352  28.6280322   6.3745071  12.4502015  29.1325188
   6.4734890  10.9475529  29.2849541  67.6483107   8.5812438  64.0515947
  67.1123791   9.0741843  63.4302902  67.2053099   7.7366018  64.1325903
  46.7634344  12.3323572  69.2287111  47.1231174  12.5103438  68.3596992
  46.9356251  13.1310511  69.7273827   2.8888606  99.9685377  44.9673367
   3.4693383  99.3761564  44.4894600   3.4300183 100.3125424  45.6780005
  12.2839593  89.8465312   9.3719894  12.2170400  90.7982100   9.2941236
  11.5544318  89.5116711   8.8505548 111.2243315  24.2412227  92.1322297
 111.5145919  24.5038479  91.2587266 110.3241917  23.9413803  92.0054284
  77.9617548  14.7320807  19.5723987  78.1692839  13.7987852  19.6184635
  78.4350252  15.0449133  18.8014364  44.2729425  98.5376835  10.4201257
  44.9314832  98.5252900  11.1146772  43.4661054  98.2540382  10.8499897
  17.4351834  81.5987063  31.3007689  17.5553369  81.5158010  32.2467732
  17.8405189  80.8111287  30.9379196  51.8272161  49.9675179  24.5355248
  51.6356707  50.9014702  24.4501877  51.8318701  49.6407938  23.6358261
  59.7768736  34.9443173   3.9157799  59.9159813  35.8895278   3.9745602
  60.3813314  34.5728517   4.5583338  19.6933268  59.0836328  81.6025257
  18.7439059  59.0449261  81.4871228  19.9116896  60.0078576  81.4826942
  76.6465950   6.1433363  41.3679647  76.5045595   6.6207296  42.1853733
  75.8795500   5.5767590  41.2851095  80.2654978  52.5353270  92.5657759
  80.8148619  53.0222729  91.9515144  79.5526931  53.1375761  92.7789351
 100.7164192  12.8810394   0.0055409 101.4324570  12.2470045   0.0443859
 101.1054420  13.7006736   0.3106398  69.2111397   1.6419969   7.6417899
  69.6443605   2.1273370   8.3439267  68.3014393   1.5653516   7.9295397
  43.1816339  36.4998651  31.3455248  44.0939236  36.2691927  31.5208650
  42.8947973  36.9592547  32.1347761  60.2053499  26.2412143   0.1384879
  61.0118389  26.3297987  -0.3694123  60.0107622  27.1299815   0.4359091
  16.2633895  82.4346758  43.9955807  15.6166267  82.6410890  43.3208084
  15.8188533  81.8121768  44.5710039  81.0247421  45.6655836  15.9215999
  80.8369637  44.8397827  15.4754782  81.9066525  45.8991623  15.6319273
 104.9042985  66.6814154  91.1427422 104.3611190  66.6523974  91.9303614
 105.7598969  66.9782906  91.4526615  28.6430359  36.2502122  29.8887968
  28.0510974  36.7770338  29.3518615  28.2505417  36.2637091  30.7617211
  83.0765438  16.7357004  30.5080891  83.4518814  17.6155794  30.4739404
  82.6862812  16.6080594  29.6434283  98.7628409  96.3732355  75.4806602
  97.8794762  96.5400236  75.1519120  99.1873833  97.2310989  75.4725111
  28.8859891  94.6177495   2.3456243  28.7791061  95.5689622   2.3462045
  29.8288297  94.4827319   2.2504802  79.2730093  16.6150367  40.0758982
  79.8182487  16.6373289  39.2894816  79.2124653  17.5297379  40.3513765
  60.5366278  32.6649904  39.4366956  61.4149046  32.3354316  39.2463017
  60.6852818  33.4929967  39.8933530  74.7375819  64.3226891  80.3642249
  75.6330892  64.0534680  80.5687237  74.1875169  63.7530428  80.9019637
  45.6632853  12.2332871  22.3737597  44.8706913  12.1138155  22.8969669
  45.4591846  11.8239474  21.5329170  68.7981892  35.5289674  27.6526237
  68.4598637  36.4010119  27.4493909  69.1883421  35.6200314  28.5219431
  43.8837290  48.9208031  23.4862804  43.6418819  49.6173096  24.0967011
  44.6022940  49.2906761  22.9733586  54.2559003  99.8174263  34.9748135
  54.6337556  99.3877435  35.7421637  53.4772729  99.2998589  34.7696376
  56.9058800  17.8490102  11.0431945  57.2647238  17.2429049  11.6913474
  57.6616716  18.3541048  10.7433760  35.1889825  23.2918978   1.2275348
  34.8462749  22.4045610   1.3343750  34.7288251  23.8077140   1.8896663
  35.1092529  13.7185049   5.0156629  35.4879928  13.5412562   5.8766919
  35.0292969  12.8565645   4.6071315  96.2690544  30.4222417   1.8217590
  96.2545204  29.6780419   2.4235797  95.5168152  30.9544706   2.0807904
  11.4026310  14.8959970  29.5418477  11.7332031  15.1202810  30.4117060
  11.8058158  15.5395246  28.9591408  70.8640814  11.1191010  34.3316507
  71.6853046  10.6497014  34.4782329  70.5147076  11.2705171  35.2098560
  70.8016777   9.2946136  51.9624472  70.4277849   8.6838222  51.3273382
  71.7350674   9.3178928  51.7515469  77.4337053  20.3140450  59.6924067
  77.0433283  19.4524884  59.5455790  77.0516253  20.6126189  60.5176973
   4.2295410  37.0931697  29.9033165   3.7974407  37.8306460  29.4724441
   3.7898304  36.3191342  29.5515299  93.5140133  41.2709951   8.7919158
  92.8910637  40.7639456   9.3125552  93.6453915  42.0760345   9.2927992
  67.0174026  31.4689207  54.0828943  66.7309713  32.0058656  54.8217297
  67.9138041  31.7570877  53.9106894  83.2118365  70.6666368  71.0377300
  83.8611266  70.1989418  71.5630043  82.4440810  70.7291465  71.6059506
  54.0318823   4.5542741   6.1388177  54.3993521   4.6984580   7.0108312
  53.3783150   5.2461565   6.0369253  18.9788770 105.3999523  43.1064939
  18.4480952 105.9266079  43.7040997  18.7649964 105.7365029  42.2363091
  67.7680016  24.4901824   1.7004825  67.5108862  23.9750385   0.9357934
  68.5097504  24.0129638   2.0723747  62.8268099   8.9361709  16.5841830
  63.3660173   8.3082837  17.0650613  61.9261694   8.6775196  16.7795897
  80.4515266  51.1781263   9.1783583  79.7653627  50.7117033   9.6557015
  80.7276535  50.5656624   8.4965396  37.2144628   1.5759176  27.8887892
  37.9288578   1.0481910  28.2456875  36.4812326   0.9654819  27.8114891
  41.6442537   7.5530457   7.0127237  41.2203693   6.7993790   6.6021824
  42.3043489   7.1709388   7.5910842  82.4007320  26.4542532  50.8879137
  82.6389694  25.8772516  50.1622772  83.0349445  26.2494063  51.5749645
  55.1917982  39.0399051  42.3720407  56.0486889  38.8492441  41.9904470
  54.5744514  38.5438609  41.8344021  90.1519585  24.1559958  25.1771641
  89.4973755  24.5623374  24.6091509  90.8734703  23.9323044  24.5892787
  74.6837425  23.7715125  14.4081426  75.3632450  24.4207907  14.2266369
  73.9342499  24.2863822  14.7071445  74.9807167  27.8063059  42.2276354
  75.8268881  27.4834061  42.5374031  74.5704842  27.0459604  41.8155432
  77.5824213  66.9824553  10.3971589  77.4961329  66.3359737  11.0977650
  77.1367359  67.7602577  10.7327485  45.3798962   0.6526060   7.6097500
  45.0945282   1.3503215   7.0198441  46.1438942   1.0154472   8.0579579
  86.9196892  26.4703155  14.5283139  87.1687412  26.8079376  15.3886712
  87.1733856  25.5476141  14.5504904 109.4890690  21.9429326  24.0090251
 109.8486042  22.0604897  24.8883152 109.9958706  21.2208271  23.6376095
  84.8841283  42.2322040  77.5825787  85.1959845  43.0659991  77.2307790
  84.1187569  42.0183747  77.0489931  64.4393635  10.9490311  15.6551933
  63.9553642  10.2125323  16.0287488  63.7659311  11.5017939  15.2587461
  68.5388613  54.6335554  24.7937107  67.6927805  54.4413900  24.3894243
  68.3171797  55.0361872  25.6333399  96.6170692  28.2432079  15.7991123
  97.5135136  28.5774660  15.8288848  96.7121983  27.3246121  15.5473900
  69.0290928  48.7411833   5.1015788  69.6077394  48.0336046   4.8174432
  68.4039307  48.8421726   4.3838003  11.1800574  95.0215734  22.4450636
  11.6643523  95.2074612  21.6406155  11.8578004  94.8389531  23.0958676
  58.9796162  50.7130957  17.9234087  59.3381786  51.5650082  18.1722379
  59.2846489  50.5776310  17.0262837  52.5999832  45.1567936  26.5339255
  52.6536846  44.9470139  27.4663115  53.0388212  44.4260883  26.0983610
  59.7786522  22.0414472   1.6406700  59.3360758  21.9363070   2.4828708
  59.2215681  21.5750575   1.0174800 106.0666561  13.6724436  24.6180439
 106.6060925  14.4630480  24.6042013 105.5298710  13.7624991  25.4054356
   1.6094779 102.1096615  11.1528385   2.2805976 102.1783645  10.4737878
   1.8699097 102.7521480  11.8128514  60.8619833   8.0090225  41.0707712
  61.3388681   8.8384187  41.1010218  60.9658670   7.7057743  40.1688385
  69.5504618   0.3275927  13.8833666  69.1165924   1.1526383  13.6659038
  69.6034765  -0.1418312  13.0508626  90.1186657  65.4064226  11.7620933
  91.0670471  65.2768230  11.7651439  89.7738361  64.6412086  11.3019013
  87.0652053 104.6527155  32.3475742  86.3837228 104.9715642  31.7558408
  86.6593168 103.9169732  32.8060174  83.4259415  13.8916671  31.1038995
  83.5120392  14.8284411  30.9270620  84.2645931  13.6432588  31.4927411
  95.3833958  50.3866374  90.5591485  95.3927514  51.2543041  90.9632510
  95.9157702  49.8452293  91.1419735  73.8433191  73.5668820  86.5418119
  73.7354991  73.3314162  87.4633116  74.7086522  73.2308071  86.3083917
  80.0912139  62.3644602  89.8290295  79.9855372  62.4770569  90.7736913
  79.3985507  61.7517918  89.5818767  86.4253518  85.9459417  90.3198018
  86.4179656  86.8584436  90.0308067  86.8414542  85.9709614  91.1814675
  19.9669122   4.9308460  82.5990051  19.0539264   4.8637311  82.3193956
  20.1147937   4.1447465  83.1247521  44.2761993   6.1188555   4.4406855
  44.0626717   5.3246522   4.9304587  44.6434832   6.7126000   5.0955164
  57.3717546  26.6959906   9.9072844  57.2748566  26.7007327   8.9550138
  58.0283594  26.0207033  10.0778580  21.6745185 106.3326599  50.4784155
  22.1276282 107.0952388  50.8381319  21.4147996 106.6019461  49.5973539
  71.8033648  13.3158219  41.9185591  71.5868616  13.9291334  42.6208448
  71.8781948  13.8633657  41.1370039  22.7949548   2.5400266   8.4463501
  23.0298781   3.1097940   7.7139509  23.5867214   2.0296888   8.6163265
  79.6002483  50.7899857  17.4975359  80.3895378  50.3967667  17.1252096
  79.5368433  50.4143000  18.3756423  50.0241613  30.5866146   2.8925821
  49.8033714  31.5141439   2.8078955  49.1776800  30.1423359   2.9406917
  59.2188501  29.4453120   3.1744656  59.5996666  29.7932124   2.3681313
  59.7945738  28.7203932   3.4179199  49.4099188  29.9383950  14.0828490
  50.0889730  30.6102562  14.1438198  49.4227076  29.6675420  13.1648588
  28.2771730 100.2004099  23.1375122  28.6388492 101.0808308  23.2389021
  29.0359449  99.6509207  22.9411411  91.9896030  37.4828696  25.8062458
  91.6551208  36.5869379  25.8469868  92.8962898  37.4138594  26.1052251
  63.8052940  16.2158763  38.0975175  64.1699743  16.8675840  37.4987578
  62.9785156  15.9543538  37.6922035  98.0949306  18.7261200   0.4436084
  97.2083282  19.0860844   0.4189898  98.0107784  17.8553820   0.0550658
  79.7996756  87.3762982  82.8132952  79.4839188  86.5989702  83.2740456
  79.4600531  88.1115764  83.3234465  63.5407448  19.2443848  21.2441897
  63.5927868  19.8878586  20.5374622  62.7950954  19.5288527  21.7726898
  79.3210316  21.1765099  21.3533235  79.7667694  20.6344557  20.7023787
  79.8673725  21.1084127  22.1363354  33.1083536  38.9930010  48.0042076
  32.8128266  39.3303657  48.8498306  33.5883427  39.7214413  47.6102257
  38.8160586   3.4886640  39.8509717  38.6359286   3.7460339  38.9467883
  38.8922668   4.3167204  40.3250456   0.6851433  83.1334775  81.5159202
  -0.2122642  83.4565228  81.4350987   0.8089875  82.5756949  80.7479525
  39.1499757 104.2824409  35.2081728  38.8016462 104.7170824  34.4297218
  39.0799045 103.3481077  35.0123596  58.3112049   5.6146824  40.7537222
  59.0425634   6.0895967  41.1484385  58.1190825   6.0964495  39.9492192
  86.0075474  21.9438028  16.0753000  86.5665054  21.5105557  16.7203557
  85.5818176  22.6491833  16.5625584  81.8386555  45.2298498  29.3977165
  82.0652199  45.6481838  28.5671163  81.5075874  45.9435797  29.9428988
  37.7664280  25.5196261   1.6789718  38.1169701  26.0346317   2.4056929
  37.0953989  24.9665904   2.0790973  80.1689434  52.6731253  40.7482052
  80.7930183  53.3944845  40.8283043  80.4357147  52.0495224  41.4236212
  13.3298300  83.3063238  77.7264107  12.5126646  82.8118771  77.6631749
  14.0158938  82.6545947  77.5821936  62.0372486   4.2598733  20.2342772
  61.3623381   3.6193293  20.4588485  61.5680981   5.0923008  20.1777720
  40.4855776  42.7849197  29.9844575  41.1914062  42.1406221  30.0385213
  40.9338474  43.6212921  29.8588824  72.9159021   5.4732114  17.2669578
  73.4210443   6.2634909  17.4580669  73.3223820   4.7933376  17.8043354
  80.6591841  38.0517393  77.2965825  80.0694129  37.7707749  77.9961980
  80.9051320  37.2412186  76.8507159 102.0369956  69.2645829  81.0663581
 102.5740191  68.7546318  80.4599059 101.1445328  69.1702419  80.7334280
  10.6238174  92.9613019  16.3276577  10.4343175  92.0393384  16.1535692
  10.3982257  93.4101832  15.5128908  17.4707030  90.3609531  89.7218943
  18.1641386  90.9570544  90.0048110  17.8768919  89.4944375  89.7416976
  44.9196625  29.1867948  41.0333061  45.1853704  28.2738161  41.1432981
  44.5249605  29.2180395  40.1618290  11.9598673  52.6924925  82.8652490
  12.6142405  51.9993577  82.7781016  12.4711798  53.5005294  82.9084963
  62.5953770  30.6216931  35.2376127  61.8731022  30.7554793  34.6238947
  62.5809669  29.6828175  35.4234624  19.7525214  91.5587414  44.3793535
  19.9961661  91.3553048  45.2823973  18.8415813  91.8471552  44.4362259
  23.3831262  91.0146225   0.9173764  22.9285573  91.7671311   1.2959677
  23.2016277  90.2957452   1.5227741  48.1161164  97.8843421   0.9069854
  48.9316415  98.0474330   0.4331125  48.0972051  98.5554797   1.5892231
  59.5127964  26.7256331  27.9201055  59.3352175  26.3606310  27.0532298
  59.2049646  26.0551357  28.5299468  40.9025574  20.2157831  77.5857687
  41.3141537  20.9123373  78.0972672  41.5939617  19.9087286  76.9993305
  51.3018656  23.4298992  38.2385445  50.4433155  23.1866121  38.5848546
  51.5122032  22.7377343  37.6117277  35.2993965  19.0877521  25.7751393
  35.5203152  19.8026180  25.1781535  36.0396290  18.4843326  25.7105303
  30.1925898  17.6381469   8.9519346  30.2568054  16.6831660   8.9410365
  29.9196935  17.8699958   8.0642378   4.0260123  92.2538794   4.4858962
   3.7628268  92.1301687   5.3978503   4.9401473  92.5332690   4.5362169
  27.5378585  29.3552685  32.5412345  28.3227468  29.5619106  33.0486631
  27.3251390  30.1702809  32.0865536  28.5945368  44.8624802  22.3921657
  28.3562660  45.6809187  22.8276229  29.0106320  45.1380777  21.5753770
  74.4462538   8.4434634  40.9994888  75.3097677   8.4002143  40.5887556
  73.8626957   8.0105048  40.3764009 107.4965951  94.6079672  60.6470156
 107.8615544  95.3583801  60.1780605 106.5911028  94.5520628  60.3417444
  50.2518129  23.6106706   2.4213104  50.8092499  24.3887615   2.4294612
  50.0477266  23.4525824   3.3430415  73.6853504  11.6899526  17.1606207
  73.6149454  11.3159299  16.2823367  72.9375219  12.2835302  17.2288215
  26.0068130 104.3827965  63.4361362  25.7138919 103.4715599  63.4273815
  25.6140899 104.7681594  62.6528788  64.5979404  44.3838310  22.6803470
  64.5741272  44.3005371  21.7270756  63.6949110  44.5851278  22.9258132
 109.7715089  37.1468275  76.0671401 109.8539397  37.3277431  75.1308143
 110.6382271  37.3384946  76.4253259  74.1294813  11.7083788  43.5807467
  73.9079380  10.7779908  43.5416555  73.3857584  12.1491516  43.1698656
  83.3520508  12.3203039  17.5884151  83.4871864  12.0742142  16.6733146
  82.4802589  12.7152169  17.6040041 110.5822277  33.5836768  34.3892384
 111.3834000  33.4405184  33.8853860 110.5952454  34.5173693  34.5996642
  52.3592472  39.7273755   4.6784899  51.9628859  39.5755243   5.5364352
  52.8719282  38.9371800   4.5082629  13.4181784  89.4582003  88.8294393
  13.9576529  89.6378296  88.0594179  13.2186316  88.5239571  88.7694261
 113.5968968  94.1626709  87.0461399 113.0134961  93.4081715  87.1274376
 113.1479308  94.7479504  86.4361304  95.0703716   7.3444378  27.0298386
  95.3985786   8.0814636  27.5449204  94.9619102   7.6985335  26.1471796
   4.2026185  22.2219913  91.6888496   4.0304469  23.0234067  91.1945619
   4.1623925  22.4929540  92.6060142  69.0185881  28.4874654  19.2004597
  69.7706175  29.0588665  19.0449369  68.7639999  28.1841207  18.3290255
  56.8212509  26.2263918  31.9929171  55.8927488  25.9941149  31.9801879
  56.8992615  26.9365001  31.3558221  30.8020066  98.7576426  35.6424618
  31.2713050  98.8771225  36.4681220  29.8949479  98.5983211  35.9034085
  22.4831294 101.0091234  49.2617989  23.4018420 100.7492126  49.1936588
  22.2339582 100.7759864  50.1561117 108.3943936  67.1576148  74.0202022
 107.8559252  67.9113966  73.7791717 108.7695929  66.8568426  73.1925571
  36.6349888  55.1258039   9.4838846  36.3675904  54.5961666  10.2350283
  36.4311409  56.0252142   9.7402799  45.5820656   9.8910391  14.6299481
  45.1245022   9.0513718  14.5871961  45.2891207  10.2817953  15.4531896
  61.9757509  12.7756202  27.5071859  62.8673697  12.6233840  27.1940207
  61.9078541  13.7273717  27.5832796  18.1916807  82.1083181  80.5494416
  18.9663409  82.5834148  80.8501304  17.4600695  82.6924437  80.7488871
  91.2474728  63.5972118  42.2564268  91.9382381  62.9363298  42.2083759
  91.6338825  64.3111229  42.7636242  77.3116827  46.7413568  20.4840779
  77.6000071  45.8689928  20.2155972  76.8677568  46.6000891  21.3202620
 106.0687447  14.1220415  59.7675228 106.1962128  14.4258428  58.8688040
 105.3493881  13.4933758  59.7080803 109.3966484  62.5425625  25.8639073
 109.8459148  63.2380629  26.3441896 108.9922237  62.9881954  25.1195407
  57.0975064  10.5946987  85.3552133  56.1510991  10.4595773  85.3072393
  57.2609758  10.8214252  86.2706948  52.8631592  40.8017206  32.5458574
  52.2308159  40.8350515  31.8280363  52.3887873  41.1529112  33.2994294
  60.0916958  37.4173594  34.8743677  60.2311420  36.8120837  35.6026745
  59.3333197  37.0629001  34.4102001  54.8993921  28.4486318  14.8017716
  53.9793062  28.6981583  14.7156501  54.9329138  27.9311514  15.6063354
  10.0215720  92.4658149  81.9935632   9.5252035  93.2408755  81.7306507
  10.8988283  92.7970427  82.1857930  25.3975963  31.8194120  58.6319053
  25.6918954  32.6305120  59.0463174  26.2057685  31.3671701  58.3899033
  78.5310030  17.2339487  12.4106717  78.3986044  17.6475596  13.2636833
  77.6467514  17.1009851  12.0691299  92.5296733  55.6410157  77.8809274
  92.8745600  56.4970323  77.6269186  93.3028456  55.1369666  78.1346381
  23.1078909  73.6074751  89.7687704  23.7957476  73.1021481  89.3354822
  22.9634474  74.3583077  89.1929072   7.5753973  54.5869320  89.5648194
   6.8101214  54.0795816  89.8353383   7.6178454  55.3090420  90.1917065
  72.6170397  14.9756885   6.3998097  72.7145052  14.6442366   7.2924870
  73.4487343  14.7666776   5.9745735  12.2500704  90.1043146  78.3502627
  11.3761710  89.8634570  78.0428028  12.3774432  90.9985154  78.0333805
   3.7999008  82.9126542  79.3051553   4.2852352  83.6934202  79.5717776
   3.4731243  83.1210273  78.4299243  97.8239059  37.6290798  58.9756393
  97.0539284  38.1307793  58.7079430  98.2714367  37.4212956  58.1554127
  69.7051382  31.4453936  28.5586476  70.3690386  31.4170337  29.2476058
  70.1745605  31.1941600  27.7631903  53.0156898  41.0698938  11.7480624
  52.7943659  41.5815496  12.5261724  52.2429466  40.5274820  11.5902984
  61.2263393  32.7247143  27.9695606  61.2868357  32.5391412  28.9066482
  61.5481329  31.9286656  27.5464916  77.9702374  85.4767364  81.1728859
  78.3967158  86.1422175  80.6329930  77.3705074  85.9703725  81.7322421
  58.4574509  60.5307913   4.3842891  57.6650333  60.9949684   4.1143957
  58.5062313  59.7777510   3.7954041  89.2356300  27.3223925   2.2572073
  90.0031090  26.8296385   2.5477397  89.2440605  27.2386003   1.3037193
   5.0457667  69.7841638  58.8504351   4.5635413  70.5856972  59.0534962
   5.1760577  69.8166221  57.9026997  70.0905514  34.4928217  44.4376612
  69.3806934  34.6221209  43.8086796  70.7837057  35.0825858  44.1411066
  10.4347037 102.6812332  87.9923684  11.0763644 102.0173424  88.2448507
   9.5866297 102.2740954  88.1691164  81.9273376  26.6604733  17.0396292
  82.0593929  25.9345889  17.6494515  81.3410378  27.2587657  17.5028121
  92.8036213  25.1270652  24.8641896  92.1330070  25.8035684  24.7701693
  92.5888920  24.6898222  25.6881666  34.3220758   2.2184293  85.1396680
  34.5635413   2.6938789  85.9345717  33.3708333   2.3101728  85.0853414
   6.9293497  80.8890837  92.0992871   7.8366183  80.9932535  91.8125093
   6.7800329  79.9437421  92.0829434  80.6110573  13.5374725  35.3051758
  81.3410950  12.9450595  35.1253891  80.1262379  13.5771918  34.4808006
  44.2964125  34.5524192   7.8937262  45.2180862  34.3117428   7.9876822
  43.8245630  33.7218332   7.9547042 113.1891441  44.9668264   8.6067730
 112.3222542  45.3723097   8.6248839 113.0137825  44.0259266   8.6203736
   3.1869556   5.8738184  39.3355918   2.9650261   5.1333243  39.9000812
   3.3565189   6.5948170  39.9419236 100.8443400  72.5294262  80.4291821
 100.4948041  71.7533212  79.9913252 100.7850215  73.2225054  79.7716451
  69.1231155  40.7986546  38.2295108  69.8444510  40.8936548  37.6075077
  68.9298105  39.8611808  38.2307410  64.5223904   2.3739922   9.7349340
  63.8752222   1.8479325  10.2046859  64.0279913   3.1251490   9.4069612
  73.2859707   1.5099500   0.5244033  72.5630140   1.2095032   1.0751255
  73.4393120   2.4130577   0.8020994  81.8540287  68.0522585  19.0570688
  82.4622536  67.8485775  19.7675705  82.3572445  67.8941870  18.2583070
  60.8395195  18.9444757  39.0303826  60.7607794  19.8706961  38.8020229
  60.6899023  18.4810603  38.2063103  79.7143936  54.1003275  10.2476680
  80.0822544  54.0524960   9.3652725  79.6153831  53.1867790  10.5157280
  92.9374313  50.1554775  28.3661127  93.4400749  50.2114344  27.5534296
  93.5572147  49.8082924  29.0076447 100.3658485  38.2432008  23.4435129
 100.7614994  38.6358619  24.2216587  99.7079659  38.8791609  23.1624770
  92.8399754  40.5027103  31.0164237  92.3976517  40.0126266  31.7095327
  92.1719742  41.1016703  30.6828666  41.3098955  32.1115065  31.5221882
  41.5560150  32.6187158  32.2957492  42.0741177  31.5641761  31.3415480
  39.7495031  15.7915378  31.8185544  40.6012917  15.4875314  32.1320367
  39.4390368  16.3828552  32.5042558  93.3294964  68.5185337  22.7194977
  94.2239571  68.4169292  23.0448294  92.7789974  68.1634569  23.4174299
  66.8615675  13.3709121  21.6549063  67.4229765  12.6297927  21.4273190
  66.3039398  13.0414164  22.3596835  18.4182977 106.2582911  16.6249490
  18.5686254 105.9436983  17.5163889  19.0470409 105.7731867  16.0905445
  44.8113249  94.0529030  68.9861667  43.9226054  93.7046784  69.0578974
  45.3519533  93.2896298  68.7827742  26.9517945 105.0897609   1.3495173
  26.4601659 104.3370835   1.6781610  27.4444532 105.4036515   2.1077992
  54.8778772   1.0048740  82.9543341  54.9193525   1.4731138  83.7881583
  55.4892491   0.2757471  83.0584234  60.9877682   6.9360214   9.6165997
  60.1731586   6.6692615   9.1905922  60.7897663   6.9053411  10.5525935
  69.2639494  40.9557056   7.5733250  69.7278404  41.7748594   7.4000466
  68.8039398  41.1108398   8.3982825  37.6752614  98.0042554   5.1820344
  37.9170036  97.5478322   5.9879315  38.2328986  98.7821657   5.1708543
  65.2885103  24.7651720   3.5157979  65.4774046  23.9898658   4.0444279
  65.5636740  24.5246983   2.6310998  81.9475937   5.2312124   8.2859761
  81.8183327   5.9392995   8.9169574  81.0791397   4.8427051   8.1807137
 105.5996176  41.6890805  90.8831482 106.1068532  41.1779159  91.5137462
 104.7839209  41.1992329  90.7786401  98.7765312  42.0060539   3.6349255
  99.6069908  42.3780203   3.3379331  98.8278389  42.0378923   4.5902187
  18.7654875  50.9503823  84.5888257  18.9387320  50.0571477  84.2915887
  19.4775961  51.1421008  85.1990491  47.9197645  25.5929875   3.1435606
  47.9265690  24.7386217   3.5751256  48.5933876  25.5249071   2.4669337
  76.3729858  53.8426828   0.6967181  75.5031252  53.5402679   0.9577166
  76.4145851  53.6694431  -0.2437549  50.2227735  10.9898059  88.0291435
  49.5961427  10.3303163  87.7314180  50.5649804  10.6407516  88.8521177
  73.8038683   6.0513145   5.4899246  74.4562340   6.6181809   5.9013999
  73.9149618   6.2005836   4.5509842  23.3246421 106.3882960   7.8328538
  23.9548253 105.9417092   8.3982396  23.1639098 107.2256305   8.2679039
  82.3621845  32.2398758  30.1392055  82.3430920  33.1872034  30.2749944
  82.1099186  32.1240902  29.2231369   1.6445301 105.0876253  78.7552548
   2.1875284 105.5995768  79.3546594   0.8977412 104.8104542  79.2860210
  64.5886660  25.1121759   9.1192561  64.7318792  25.8720756   8.5550958
  64.2823887  25.4827166   9.9469811  83.3602142  19.6399760  21.0025692
  83.7788773  20.3851056  20.5715942  82.9035187  19.1811061  20.2975202
  87.4148846  12.1870506  26.1753750  87.8665638  12.3405743  27.0052266
  86.5277672  11.9323206  26.4290810  56.8864679  31.5205240   2.5922123
  57.4019003  30.7594633   2.8593248  57.0709896  32.1810818   3.2599306
 108.6081219  33.2459164  11.0883307 107.8678989  33.2953620  11.6931939
 108.3460617  33.7880898  10.3442824 105.4028988  30.4910326  11.7527175
 106.2211323  30.3858423  11.2672710 104.7317219  30.5751610  11.0754633
  60.2700949  33.2110929  17.1074784  60.6988573  32.7177191  17.8067458
  59.6674347  32.5844598  16.7070222  38.1792140  45.8594608  24.2898417
  38.7508798  46.5996647  24.4936275  38.6759233  45.0897217  24.5673490
  43.7775803  45.2507639  27.1139264  44.4249201  45.6547832  27.6918101
  43.7316799  45.8370781  26.3587070  79.1053343  32.8135204  18.2741904
  79.7340202  33.3584666  18.7474954  78.3156490  33.3516645  18.2191348
  21.3670252  71.5828770  89.8893246  20.5960844  72.1360236  89.7631753
  22.0736883  72.1980291  90.0853980  59.6831131  60.0577497   6.9959372
  60.2403164  59.3095732   6.7814887  59.3018055  60.3203297   6.1581492
  92.4392891   8.1229430  33.7707663  91.9665527   7.5041366  34.3273830
  91.8909550   8.9074999  33.7653852  49.8649930 105.0783049  10.2061570
  50.4200315 104.5239458  10.7546532  50.1110410 104.8510258   9.3094778
  48.2835770  31.9293618  17.5968683  48.0152273  32.5208879  18.2999432
  47.5019121  31.8339777  17.0526874  78.4759331   6.1943907  19.1985035
  78.8171673   6.4196151  18.3330178  77.7771330   6.8299663  19.3532765
 111.8843555  26.7561913  28.9145827 112.2605419  27.1838737  29.6838689
 112.4815178  26.9792533  28.2005334  26.3150023  74.5392316  85.5045712
  25.4411982  74.3862813  85.8641512  26.5888212  73.6855214  85.1692611
  62.2145510  36.4923930   6.8927097  61.6046810  35.7560539   6.8469042
  62.5330305  36.5957475   5.9959823  80.3761765  76.0638779  62.7804029
  80.5946061  75.1964205  63.1210459  79.4453999  76.0087960  62.5639546
  78.2968283  43.0304432   5.8301097  78.0711174  43.7990999   6.3539904
  79.2539072  43.0215025   5.8179539  71.4296055  29.1597104  38.7877321
  72.1388578  29.5184541  38.2543516  70.6322479  29.3832946  38.3076692
  83.5949898  54.0346289   2.8371155  84.4005203  54.3935633   2.4649364
  83.5305309  53.1549788   2.4652447  80.5059242  53.3818483  13.4940290
  80.2322483  53.0983639  14.3663669  79.7435665  53.2181072  12.9388380
  78.4675503  49.9879742  27.5353909  78.9726877  49.3979692  26.9759607
  77.5540495  49.7905827  27.3285413  74.7738171  35.2735710  35.6490111
  75.0350189  34.3548441  35.5861998  73.8168812  35.2510071  35.6495595
  12.3768330  23.0753994  23.5659385  12.9162180  23.4891224  22.8920460
  11.8032086  22.4811316  23.0821705 101.5968895  23.5350633  14.2053437
 102.3840618  24.0366435  14.4174719 101.8806267  22.6212835  14.2322993
  73.3867025  29.6686816  26.8795943  72.4713850  29.8970556  26.7174959
  73.8797998  30.4370975  26.5921545  55.1675701  43.0314541  11.9020510
  54.4888973  42.9254246  12.5686789  55.7134056  42.2500229  11.9895482
  91.8764973   4.4680756   4.1427690  92.5717735   3.8219270   4.2665565
  91.0772324   3.9475119   4.0626764  58.0204964  17.1805310  22.5614667
  57.9746246  16.3628805  23.0570221  57.8644800  16.9195819  21.6538358
  65.8607244  54.6474075  23.4664845  65.1943827  54.1997433  23.9878440
  65.4334879  54.8178577  22.6270533  67.0104504  60.0443459  36.5476179
  66.1250544  59.8505068  36.2398219  67.5804377  59.7547102  35.8352566
  66.8016911  42.0474195  25.4084778  67.2444010  42.8178787  25.0526190
  67.3305035  41.7956877  26.1655879  17.1158361  84.8718954  16.1714590
  16.7905234  85.7620931  16.0374784  16.8249511  84.6408272  17.0536304
 104.4867325  61.9661236  -0.2704732 103.9553833  61.5597105   0.4141615
 104.9002934  62.7144623   0.1598620  59.1431284  24.9317765  64.0232849
  59.1933584  24.3490267  64.7809887  58.2063103  25.0857258  63.9012146
 106.3233185   4.2857528  29.4484496 105.7032108   3.9018235  30.0683689
 105.7774448   4.6026173  28.7288308 106.6293240  10.9823847  14.8878264
 107.2662544  11.2465823  14.2239308 107.0471096  11.2007928  15.7208824
  82.6030254  51.5471935   2.7135497  82.9391289  50.6783295   2.4936838
  82.4590206  51.5160179   3.6593413 100.6385422  32.9881406  43.4837580
 100.5049992  33.7137842  42.8739786 101.5372562  32.7013350  43.3216047
  29.3305395  37.6953714  89.0730858  29.3085192  36.7507380  88.9200640
  30.2512263  37.8878539  89.2506218  47.7796602  36.3723993  18.4714782
  48.4973383  36.3683438  19.1048479  48.2007217  36.1908913  17.6312423
   3.6566685 102.9143446  77.1190608   3.3528422 102.4965876  76.3132084
   3.3499001 103.8184612  77.0505143 101.4084911   0.4159675  20.5956626
 102.0641994   1.0394485  20.9079814 101.6100407   0.3014990  19.6669507
  79.4987059  36.9338775  24.8142052  79.4208097  37.7932620  24.3999338
  79.9235773  37.1102571  25.6536126 112.9051158  93.3094853  68.1191147
 113.5690257  93.4485262  68.7944830 113.3918473  93.3376282  67.2953856
  81.3774109  27.0309615  22.5926948  81.0601330  27.3675632  23.4307075
  82.3229027  27.1780610  22.6180077 110.8911559  96.8747538  87.3586411
 111.2049958  97.6739805  86.9355899 111.2842795  96.1648291  86.8510074
  58.3358431  17.9369950  29.8610830  58.9197254  17.4719608  29.2618680
  57.4644375  17.5964069  29.6588969  15.8101894  41.6250992  12.8878891
  16.6211559  41.2788200  13.2602584  15.7043602  41.1518669  12.0626104
 105.3893852  51.7662811   9.3336695 105.2208233  52.6690817   9.0639091
 104.5588207  51.3135386   9.1873348  24.0937018  59.9289370  44.0511274
  23.5194087  59.6809959  44.7756577  24.2464948  60.8655310  44.1763163
  52.9615259  60.9431696   2.7598256  52.4312735  61.6895151   2.4804869
  53.8635302  61.2111330   2.5842771   7.9210757  58.9817726  72.4247635
   8.6595915  59.4896727  72.7607096   8.2923601  58.4620767  71.7118180
  37.0198917   1.8066375  88.3713246  36.1666345   1.5541427  88.7240762
  37.2663736   2.5833290  88.8735488  51.3036966  54.1033411  15.2699220
  50.6384373  53.4792566  15.5600655  51.8962479  54.1864061  16.0170615
  78.7951899  24.6396852  50.1802206  78.8668537  25.5303407  50.5234814
  79.4794273  24.5843101  49.5131540  65.1985121  34.9658561  45.5467176
  64.5910311  35.2230287  44.8531342  65.6723356  35.7696629  45.7603025
  94.1864773  91.5111631  80.7039404  94.4949242  91.9871228  79.9328661
  93.2321307  91.5634888  80.6518042   1.0578726 104.1414183  76.0403061
   1.8565415 103.9287918  75.5574489   1.3667916 104.4289988  76.8994320
  62.8988694  13.2877700  75.0393570  63.3886193  12.6541107  74.5150900
  63.4317636  14.0825098  75.0138975 101.2247845  50.5231031  86.4622534
 100.7127234  49.7302651  86.3027805 100.5703923  51.2135562  86.5684402
  45.9217310  50.4163885   9.7197270  46.0833549  49.5734739   9.2959291
  46.3027000  51.0611486   9.1235900   7.6267718  81.1197966  80.2186036
   8.1610106  80.8506840  79.4713426   8.2107733  81.0375827  80.9725345
  74.0234709  42.5413752   4.8440257  73.7079144  41.7824841   4.3533710
  74.9152660  42.6791096   4.5247084 100.7309341  30.6372929  10.1288950
 100.5545998  31.3432860   9.5070332  99.9189377  30.1310277  10.1530528
  93.9149094  51.8137789   2.9014871  93.9896393  50.9440088   2.5088629
  93.5730457  51.6511345   3.7806395  99.9724007  72.3054266  41.0091352
 100.6711483  72.2549915  40.3568792  99.8449135  73.2433510  41.1515284
  57.7340269  24.3173432  56.0966063  58.0006552  24.6970654  56.9338369
  56.8436146  24.0011930  56.2497282  75.1546812  17.0854187  -0.1031396
  75.1635456  16.9309115   0.8414667  75.3454924  18.0189037  -0.1949471
  63.4144974   6.1582226  -0.1071540  63.6821890   6.9930130  -0.4914696
  63.4308815   6.3131320   0.8372857   4.6569060  76.4304441  84.4390232
   3.7220524  76.4742272  84.2380917   4.7609614  76.9801848  85.2156753
  70.9295607  30.1015520  42.4567413  71.7320967  30.3469062  42.9171467
  71.0384369  29.1700029  42.2654390  40.9509706  41.2707376  49.5720005
  40.8008623  42.2101355  49.4660139  41.6072130  41.2098742  50.2661753
  55.0376701  29.9380159  10.6595278  55.2972364  29.9395490  11.5808618
  54.5149612  30.7332611  10.5566299  72.7525377  45.1681328  10.1187503
  73.6679029  45.3057146   9.8750126  72.3020649  45.0244379   9.2864877
  66.7819977  14.3434072  54.3961716  67.4893475  14.9278808  54.1236258
  66.2690687  14.2009628  53.6006594  64.5024300  33.4592223  23.3255935
  64.0847921  34.1894484  23.7823009  64.0980053  32.6779914  23.7028909
  71.1770391  23.2098460  51.6898251  70.2816248  23.5325956  51.7912817
  71.4848089  23.0717707  52.5856161  92.8324699  29.5781350  39.5089626
  93.2090569  30.3684211  39.8960805  91.9784737  29.8568726  39.1784739
  81.0908508  34.1337991   8.4697008  81.4653873  33.9891553   9.3386269
  81.7287636  33.7512875   7.8672200  53.9831257  31.1957955  45.2464676
  54.2466640  30.6077147  44.5386982  54.2813015  32.0601463  44.9632359
  71.3626194  52.8483200  17.0684540  72.1825504  52.6353550  17.5140870
  70.7362413  52.9959583  17.7770340  48.9589214  69.1400337  28.0007458
  49.6349525  68.6454248  27.5375223  48.2942104  69.3181372  27.3354125
  55.6993389  40.8407211  28.2007122  54.7591162  40.8887148  28.3736467
  55.9083176  41.6746044  27.7797651  46.5285778  16.4592910  17.8600633
  47.3026085  16.1107564  17.4177611  46.1602688  17.0874965  17.2388244
  47.8689194  29.0306020   3.5012245  48.3714104  28.2183433   3.4381929
  46.9741964  28.7769341   3.2746127  42.9722929  19.5267284   7.7304232
  42.3552179  18.8322306   7.4999470  43.3732557  19.7768211   6.8980074
  57.6459885  30.7422590  34.4114971  56.9171429  31.1462021  33.9404941
  57.4655724  29.8030496  34.3719435  79.1630602  47.9922867  18.8538742
  79.6921682  47.6219273  19.5603466  78.2589102  47.8778982  19.1465533
  91.2790581 104.9516171  81.0215891  90.5609748 105.5632799  80.8589506
  90.8725306 104.0864342  80.9723032  50.2489900   7.8285711  84.5682979
  49.4523095   8.3418958  84.4340176  49.9903821   6.9286315  84.3696577
  69.4761992  20.8118248  20.7030869  69.3015814  21.3263822  21.4911056
  70.4306221  20.8003592  20.6311321  78.4790802   3.2270056  18.9742470
  79.1383219   3.4530810  18.3181071  78.4059048   4.0100196  19.5199275
  10.9151603  57.2022152  44.7784805  10.0309612  57.2690773  44.4179869
  11.1363651  58.0966711  45.0378036  52.5976229  30.0650334  30.8757210
  52.1806097  30.8923960  31.1161470  53.1099844  30.2732086  30.0944543
  67.5605726  46.5772629  11.0788405  67.6613617  46.4155960  10.1407909
  67.0356798  47.3761272  11.1291671  69.3396374  88.4029191  72.4571121
  70.2418038  88.3550757  72.7734030  69.3614432  89.0699738  71.7709673
  82.1313763  44.3808413  12.1401000  81.9482803  43.9569759  12.9785800
  81.5213966  43.9713860  11.5264964  18.4363507 105.8645057   9.0870893
  17.8225803 106.0163017   8.3684289  17.9067802 105.9604866   9.8786539
  91.9748878  21.3866019  15.4175031  92.8083515  21.8292761  15.5775070
  91.5098476  21.4425588  16.2522709  71.2355375  13.4749484  16.7088830
  71.1371851  14.3631017  17.0520175  70.7412386  13.4787607  15.8891964
  43.4518003  94.5892275  18.4373629  42.5225877  94.4953204  18.6470985
  43.4692620  94.7510005  17.4940932  85.0186253  31.3220286  13.5981572
  85.1275730  30.4819632  14.0438640  85.3590775  31.1712360  12.7163482
  81.2814903  49.3898582  21.7199898  81.0424137  48.4769106  21.5599751
  81.6017151  49.7052479  20.8748746  76.5093613  52.7380466   4.0685439
  77.1924162  52.4399710   3.4678581  76.9458437  53.3808613   4.6275616
  90.6086394  84.3917459  81.2513471  90.3665015  83.6297315  81.7775929
  91.5276334  84.2456406  81.0269833  99.7083092  25.4085445  13.9363182
 100.2437973  24.6219110  14.0397441 100.3364944  26.1003423  13.7288833
  42.1307276  74.5993441  88.7646926  41.3447378  74.2857760  88.3173403
  41.9325636  74.4989174  89.6957538 110.2660656  26.1357117  14.0952635
 109.4827557  25.6748295  14.3956709 110.1698112  26.1765480  13.1437898
  93.0893895  68.0849534  81.0829485  92.8669068  68.9023333  80.6372750
  93.9759013  67.8827148  80.7839036  63.2640409  39.0783954  27.0730138
  62.7546930  39.6576118  27.6398516  63.3467388  38.2662201  27.5727797
 100.8457565  51.5835857  21.0207915 101.0646057  50.8755732  20.4149413
 101.5362453  52.2333384  20.8893085  21.0049056  76.9839621  42.0613432
  21.9555091  77.0349050  42.1613073  20.6883048  76.7053056  42.9206133
  42.6370382  28.4287024  26.4016223  42.7407885  28.6614537  25.4789662
  41.7299652  28.1314898  26.4731288  89.6687171  65.0011354  87.6919073
  90.5714795  64.9968486  87.3737431  89.1403338  64.8150938  86.9157434
  33.5183024  12.1511984   8.4848070  33.0533290  11.9817650   7.6654637
  33.2639909  11.4283395   9.0584195  88.0704117   3.1695849  10.7234335
  88.9956093   3.4150335  10.7239807  88.0534744   2.2985078  11.1198795
  52.3964071  32.5263000  21.6490221  52.9685640  31.7745876  21.8032718
  52.8470469  33.0361438  20.9758091  67.0260477  29.5405817  44.5687866
  66.6929388  30.3787804  44.2483234  66.5223026  28.8833261  44.0886974
  41.7986869   8.0757539  89.7045979  41.0528230   8.6608856  89.5721457
  42.2622632   8.4450023  90.4562500  76.1099863   6.8428218  26.4791918
  76.7401028   6.1236340  26.5233850  75.5815506   6.6510040  25.7044721
  77.2728062  19.6177006   1.9275415  78.2293320  19.5826447   1.9199871
  77.0224047  19.1531229   2.7261019  95.1263332  24.2213655   4.0916142
  94.7989941  25.0144815   4.5159382  95.6751919  23.8037157   4.7553596
  82.6328087  39.9901509  27.1519732  83.4249210  39.9880910  27.6893544
  81.9422245  39.6884227  27.7421308  75.3564882  14.6020937   5.4405266
  75.4573870  15.5038369   5.1357144  75.9169388  14.0885162   4.8588377
 108.3125591  34.9490809  -0.0107117 109.2306042  35.0969791  -0.2377751
 108.3074093  34.8984122   0.9451324  92.0777416  16.8603945   5.4689717
  91.3271999  16.7072344   4.8949805  92.1134663  16.0846937   6.0286540
  28.1352137  61.1537104  79.1992057  28.5606859  60.7973807  78.4193087
  27.4653338  61.7457669  78.8572109  76.5019846  43.3936787   3.6968711
  76.8748140  44.0544271   3.1132251  77.1735001  43.2583714   4.3654490
  90.1929665  71.8236828  10.4130602  90.3171730  72.7616453  10.5580759
  90.6997299  71.6342354   9.6234214  83.3521652  62.1301031  20.2450418
  83.3482265  63.0463362  19.9680448  84.1149330  61.7511129  19.8082578
  91.6674137   8.5293114  23.1308389  91.6200447   8.1328344  24.0007782
  92.3973179   8.0816126  22.7030087 110.4285908  17.1287143  22.3594642
 109.9046135  17.3379207  21.5862203 111.2639618  16.8219912  22.0068884
  89.7423267  57.2996616   0.4638853  90.0678635  56.5136719   0.9026057
  90.3199482  57.4089336  -0.2915240  73.3738946 104.6416239  15.1148045
  72.9842233 104.7954262  14.2541480  74.2947816 104.4560376  14.9310732
  84.1392803  27.4370217  30.6827450  83.2518196  27.4416852  30.3240919
  84.4873428  26.5763879  30.4495239  99.5618725  45.9554672  27.8605914
 100.0859642  46.5802622  27.3594046  99.5286083  45.1739264  27.3089457
  73.9928865  54.1229010   3.9991432  74.8272038  53.7876034   4.3273532
  73.7658024  54.8312712   4.6015364  95.4967782  88.5593551  75.7392419
  95.0216052  88.9569109  75.0095916  96.3792893  88.4126824  75.3988111
  52.4680948  37.5035739  26.3538599  51.5768909  37.2246122  26.1436892
  53.0044794  37.1442294  25.6471801   0.7960413  65.7196336  83.8582391
   0.0467776  65.5543368  83.2859511   1.5523241  65.7095807  83.2715851
  79.7338483  33.5349637  92.1869428  80.1989075  32.7305143  92.4167416
  78.9556405  33.5292631  92.7442514  66.3490582  19.1624546  29.5660186
  67.2688580  18.9695418  29.7476411  66.2374020  18.9468169  28.6401320
 113.0918694  57.9251957  28.8344383 112.5906754  58.1384420  29.6215653
 112.4793339  57.4351454  28.2859135  97.7802273  89.9326723  78.6826969
  97.7386424  88.9763921  78.6880744  98.6996028  90.1334231  78.8578594
  62.6349497  87.8734779  24.5250702  63.5912037  87.8450108  24.5566487
  62.3659849  87.9102802  25.4429650  90.0202465  55.6966639  41.5476608
  89.3737316  55.2206326  41.0264635  89.5881462  55.8439684  42.3889828
  68.9473534  62.2037172  10.4307389  69.4695425  62.2540760  11.2313712
  68.0419493  62.1571398  10.7378399  86.5740967  96.3959980  28.3549786
  86.6621494  97.1695232  27.7980757  87.3684120  96.3937378  28.8890982
  52.1431923  37.5893331  11.5575349  51.2562513  37.8746748  11.7769623
  52.1592712  36.6599917  11.7862177   1.4339782  32.0079136  35.8934355
   2.1945716  31.6785741  35.4146194   0.9734108  31.2201500  36.1824822
  87.2880745  57.4742174  13.0629206  86.7249298  57.8887224  12.4092472
  87.7471352  56.7858267  12.5816500  98.6538169 104.8268431  67.3239005
  98.7737319 105.7561176  67.1281922  98.4729048 104.4245689  66.4743841
  60.5554819  44.0219736  35.3847432  61.0778427  43.2854652  35.0670648
  59.7164345  43.6322260  35.6303668  18.7562369 104.9666374  88.5668487
  18.9451121 104.7579496  87.6519671  17.8117750 104.8364800  88.6521498
  86.6476250  36.5013456  27.8725672  87.2909260  35.9742117  28.3464026
  86.7327118  37.3776793  28.2481050  96.3011932  30.0747156  12.3735142
  96.4532757  30.6944513  13.0869770  97.0279503  30.2229786  11.7684782
 107.6070213  33.0705047  26.3864470 106.7502499  33.4973049  26.3905096
 107.4452114  32.2122526  25.9947133  75.4167128  36.3163352   2.9098585
  75.6380796  35.3868413   2.8527078  76.2591076  36.7671704   2.8519663
 103.9968011 101.8651407  73.7258923 104.4814917 101.2114781  74.2299044
 103.1299111 101.8856257  74.1312445   3.2109310  56.7158985  82.3551846
   4.0766574  57.0061350  82.0679283   3.1726791  55.7926989  82.1052265
  77.6147270  29.6025681  10.7048893  77.1408749  28.7911606  10.5223751
  77.9303932  29.8932314   9.8492587  46.7729425  36.0730665  77.5789106
  46.9087171  35.1415555  77.7523673  47.6024293  36.4850919  77.8206027
  71.5937185  27.3626447   7.4903041  70.9823799  28.0075431   7.8461218
  72.4483490  27.6312685   7.8274733 111.0200974 103.8591068  86.1655706
 111.9294879 104.0613335  85.9456873 110.5338618 104.6466797  85.9215618
  64.2494345  26.3974261  19.7765565  64.7213888  25.9326363  19.0855706
  64.7708368  27.1843290  19.9351597  87.6433277  23.9822078  41.1182547
  87.0684338  24.5583224  40.6144524  87.8524399  24.4826460  41.9069624
 106.7811775  50.9337521  58.2187033 106.3014412  50.9973717  59.0445566
 106.8921089  51.8413830  57.9356194  17.9453848  95.0108975  80.3319884
  18.6527346  94.5524519  80.7855440  17.1901415  94.9205797  80.9130872
  90.0824261  66.8155622   4.5345926  90.1402473  66.3176489   5.3500491
  89.2114353  66.6143703   4.1923597  75.8637667  22.1378326   6.9761771
  75.1527071  21.5083694   7.0961690  75.8261156  22.3675966   6.0477251
  29.5413543  38.4229803   4.3767646  29.3319942  38.0441189   3.5230282
  28.8810779  38.0611277   4.9677992  77.9299879  68.8054085  18.9333880
  77.7054644  69.6948481  19.2067409  78.5587215  68.9251089  18.2216322
  74.6261835  38.4642124  19.9405503  75.5228138  38.7775707  19.8218632
  74.6555281  37.5463533  19.6705413  79.7850370  52.3667002  22.5329494
  80.6379890  52.3415804  22.9666138  79.9532700  52.0276594  21.6537571
 111.9404602  79.5988035  36.2851977 112.4767876  79.1006231  35.6684327
 112.4932575  80.3370953  36.5412784  78.4377766  54.8352718  40.7275772
  77.5916290  54.7441912  41.1657238  78.7140799  53.9359951  40.5509758
 113.4022045  29.9922299  37.7273631 112.9300308  30.5170488  38.3737803
 113.5233212  29.1424990  38.1510568  12.0466091  53.4026480  20.3238153
  11.9016887  54.3437672  20.4214001  12.4785186  53.1412315  21.1370492
  21.4775847  91.6035145  69.2096889  20.8645724  91.9489043  69.8586476
  22.0936106  92.3200481  69.0569628  38.4015273  12.7374141  74.1127062
  38.1363105  12.1939962  73.3706916  38.4492349  12.1290510  74.8501659
  55.2434731  34.0234399  12.1067381  55.7719660  34.3937254  11.3997602
  54.3706560  34.3925452  11.9718814  84.5088673  32.8839254  32.7520466
  84.2677879  32.1993351  32.1279860  83.6723900  33.2360768  33.0562401
  81.7884636  44.9476242  18.8527453  82.7138805  45.1122999  19.0336335
  81.7138672  45.0198841  17.9011965 100.0931549  49.3681097  13.0711150
 100.2135754  50.2551794  12.7322340 100.9109211  48.9178419  12.8595901
  56.4779711  43.5679483   9.2127997  55.7260942  42.9756880   9.2010903
  56.9805765  43.3017635   9.9827129  96.9142818  59.5860004  35.6974936
  97.4748325  60.1233768  35.1378131  96.4764595  58.9866066  35.0931144
  97.3769951  79.3002129  14.8191118  97.5890636  80.1087952  14.3527973
  97.4713516  79.5256567  15.7445860  89.5437622  38.4225512  10.3808153
  89.2499065  38.2155466  11.2679636  89.6334839  37.5708055   9.9533689
  49.2561387   1.9418447  82.7657569  48.5185289   1.9515579  83.3757300
  49.2646836   1.0515039  82.4144054  60.1076746  18.0415916  24.2214274
  59.4842386  17.8225732  23.5289025  60.4706144  17.1983457  24.4924331
  66.7342138  58.1134987  29.8434877  66.4973974  57.2641611  30.2160096
  67.6886559  58.1458330  29.9085188  69.2656851  69.1101360  28.0809903
  69.4458532  68.1831217  28.2372284  68.7937498  69.3974590  28.8626266
  90.5726051  47.7674341  27.5555873  90.8610821  48.6441135  27.8094411
  89.6664333  47.8864717  27.2711277  89.1341591  54.8243856  46.3250923
  88.3287811  55.2669239  46.5929842  88.9233971  53.8920546  46.3758087
 104.3414593  36.9677567  37.2153640 104.0137196  37.3893380  36.4209533
 105.2842999  36.8862033  37.0717001  78.8121510  39.2980361  23.9731479
  78.0541706  39.4319820  23.4041548  78.7453556  39.9924731  24.6285295
   2.4954368  50.6672382  28.6505079   3.2727291  51.0035133  29.0965629
   2.5580169  49.7166824  28.7440920  96.2664986  41.8395233  16.0157168
  95.6674194  41.2382364  15.5732334  96.6972542  41.3023281  16.6806245
  16.9515513  86.5710514  91.7669022  17.3976420  86.7698353  90.9436688
  16.1271761  86.1640876  91.5004060  58.4085464  24.7925806  29.3649435
  58.8808393  23.9615035  29.3151617  58.0996704  24.8387122  30.2697635
 109.9877262  72.2218800  20.2303290 109.7320843  72.8476572  20.9080338
 110.6725311  72.6714706  19.7352111  82.6314831  29.5713687  23.8826346
  81.7091751  29.4133019  23.6811447  82.7551079  30.5066586  23.7208343
 109.9979496  29.5760345  16.8808854 110.2071095  29.7889805  15.9714150
 110.2182770  28.6484766  16.9664574  44.1597413  17.7049844  76.4074004
  44.0518426  17.4742048  75.4847241  43.3007001  17.5422685  76.7970240
 103.1452942  34.7279000  32.8455138 102.5036430  34.3349099  33.4371853
 103.8403702  34.0733719  32.7770901  93.5676479  69.5178461  36.0290241
  92.9906178  69.7890806  35.3150964  93.3984089  68.5812807  36.1311293
   1.5526532 104.6680372  62.5805319   2.4669073 104.6794432  62.8638041
   1.1100624 104.1123121  63.2220280  69.7707844  41.6543531  12.2009742
  70.4946947  42.2777891  12.1416938  70.0457716  41.0312653  12.8735626
  47.0093155  62.3058653  11.4419866  46.0715389  62.4802113  11.3619196
  47.1482134  61.5054941  10.9356809  92.3045155  83.7203329  37.7384889
  91.6489312  84.0540307  37.1260441  92.2790381  84.3326872  38.4737480
  91.7988682  57.9171562  30.5504274  92.4739933  58.2632494  29.9667668
  91.7873001  58.5246372  31.2900662  81.2640858  49.6633005  24.7280192
  81.2569809  49.3356085  23.8286853  80.5325794  49.2147255  25.1521754
  28.9315317  74.9782031  91.6277545  29.6383093  75.6122344  91.7490122
  29.2969130  74.1498678  91.9385352  13.9358519  90.5380529  83.0387026
  14.4165705  90.8512896  82.2725272  13.0400942  90.4136484  82.7250499
 106.7213726  23.4113669   4.8806116 106.1383629  22.6564765   4.9610859
 107.0026493  23.4003019   3.9657393  94.5735264  27.8344941  18.5280800
  95.2667713  27.8459334  19.1880167  95.0279427  27.6477814  17.7065694
  92.2233295  39.2572021  10.3917146  91.2825584  39.1412377  10.5248594
  92.4733639  38.5387301   9.8107558  85.9560013  38.6091518   9.4821060
  85.4326534  37.8079033   9.5006961  85.4678917  39.2008066   8.9094532
  63.5671377  88.6931896  33.6113286  63.5418606  89.2944527  34.3556905
  63.5257959  89.2619324  32.8425264  58.4158659  73.2390118   1.9897820
  58.4644842  74.1678429   1.7636563  58.4110355  73.2254410   2.9468733
  81.8212986  49.7499657  16.3759995  81.1542702  49.1060829  16.1378658
  82.5323868  49.5997572  15.7530797  86.8298817  39.7045255  12.7193034
  86.4147472  38.8631058  12.5298190  86.9324589  40.1192808  11.8627477
  96.3415337   2.7745575  34.9337912  96.9648933   2.9266012  35.6440997
  95.5342197   2.5116628  35.3757906  95.7638073  76.3166952  20.5598497
  95.8857822  76.9067812  19.8161054  95.5701828  75.4675865  20.1626682
 103.5140133  69.6471310  18.7744188 104.0047550  70.3545856  18.3561969
 103.2955074  69.0511227  18.0579972 108.0900669  33.5931206  20.7375813
 107.4841118  33.7456346  21.4626908 107.8844357  32.7083683  20.4356551
  89.1966438  68.1690598  44.8835945  89.3396950  67.4073792  45.4453945
  89.8046684  68.8294077  45.2159834  62.4756908  43.8264227   3.8043764
  62.4467850  42.8743935   3.8994586  61.8693018  44.1520786   4.4695619
  41.5682650  30.0705123   9.7440237  41.5705252  29.1159010   9.8143178
  41.3531780  30.3750825  10.6256175  80.6612301  53.9426327  19.1827059
  79.7480917  54.1361475  18.9706612  81.1060333  54.7878647  19.1197872
  80.8235359  17.7454937  22.0666671  80.0232697  18.0412269  22.5006461
  81.3121796  17.2882342  22.7510500  72.9523659  36.0752940  22.0330620
  72.4164820  36.8513632  22.1966910  72.3188686  35.3790545  21.8594003
 111.3220545  84.0486878  81.1242974 110.9957835  84.3703025  80.2838552
 110.6225964  83.4835618  81.4523626  70.4245853  31.3278770  14.8860216
  71.1828947  30.8330703  15.1964378  70.7727480  32.1952915  14.6796107
  89.2907810  87.1038532   0.4476599  90.1589775  87.3152924   0.7908358
  88.8105488  87.9310322   0.4848666  97.5345039 104.8610497  30.6098318
  97.6191235 104.1513634  29.9730992  98.2553673 104.7194767  31.2234735
  75.9135437  87.7121925   1.5242320  75.5998421  87.4507046   0.6585266
  76.8420887  87.9049683   1.3943549  21.1760666  53.2510424  22.0795774
  21.1370517  52.2958231  22.0319438  21.1774875  53.5365534  21.1659503
  95.0232264  94.7667854  72.7553654  94.7555348  94.2689341  71.9828928
  95.0688502  94.1159742  73.4557891  67.5965929  76.5113401  52.7514648
  67.3070192  76.6441727  53.6540937  66.8943787  76.8828678  52.2175217
 112.0144316  88.9123338  64.9687636 112.4749991  89.3353885  65.6934250
 111.1863896  88.6197107  65.3494966 106.1534691  45.3550959  46.0062218
 105.4712582  45.8749437  45.5812693 106.8735600  45.9707499  46.1428261
  29.6100710 102.1195286  90.1200310  30.5410860 102.3030108  89.9944693
  29.1701983 102.9330319  89.8731205  35.9730433  85.7061546  91.9480132
  36.8882273  85.5256360  92.1626620  35.4770277  85.3195923  92.6696604
  63.7944937  78.4895086  13.5083127  63.9554739  77.9230356  14.2629147
  63.3206224  79.2392015  13.8683724   8.0725814  24.8897123  14.5272696
   7.7047493  25.5784011  13.9735222   8.8641979  25.2786469  14.8991609
  60.7057714  75.7020903  31.4874458  61.3968849  76.3360834  31.2960052
  59.8918581  76.1768675  31.3190365  65.1355314  86.9838333  48.9507055
  64.4431877  87.5895023  48.6860132  65.8837938  87.5470734  49.1484499
  99.4791222  30.7732797  25.4565620  99.7012520  31.3066316  24.6933937
  99.5374870  31.3777852  26.1964250  80.1420403  82.2289848   1.8210529
  80.0148392  81.8271637   0.9616393  80.9788513  82.6881409   1.7492850
  70.3927231  78.7446260  39.5319200  70.3046846  78.3579874  40.4031229
  71.0927963  79.3905687  39.6261811  87.8745365  37.5256920  20.0848770
  88.3165932  37.4260020  20.9280133  88.4180546  38.1479788  19.6015739
   7.6158573  10.0941670  36.6641927   7.4646522   9.1855133  36.9244146
   7.3767234  10.1209474  35.7377315 101.9060898  87.0761395  15.2133954
 102.6848602  86.8049431  14.7273934 101.5267754  86.2578392  15.5339241
  49.6927260  96.9589012  92.0339034  49.8561762  97.4318283  91.2179038
  50.5137060  96.5007942  92.2138016  90.6377792  60.4158974  32.9570031
  90.3302670  61.0583591  33.5964656  91.3974380  60.8301067  32.5476408
  49.9399518  11.5739076  71.9781483  50.6181764  12.2026603  71.7313469
  49.1699456  12.1120136  72.1619213  25.6472491  81.1045998  80.7800007
  25.5918501  82.0362943  80.5676043  25.1795576  81.0201352  81.6108823
  94.9902916  50.2308178  35.4894257  94.5593071  49.6709681  36.1352229
  94.5556355  51.0788679  35.5795336  34.3359183  88.9356821  89.0731535
  35.0784777  88.9814132  88.4708649  34.7340582  88.8196247  89.9358517
  68.0447911  19.4742696  86.0433287  67.7603387  18.5884254  86.2682700
  67.5372075  20.0430553  86.6221810  64.4296408  88.6155224   1.8720679
  64.8144245  88.5552311   2.7464485  64.0781546  89.5046520   1.8258570
  55.2401590  23.8752913  27.7723312  56.0604429  23.6299253  28.2003021
  55.2368498  23.3751130  26.9562149  55.1806545  58.1631708  21.3496804
  55.5240679  58.0006361  22.2282481  55.9590006  58.3029270  20.8103466
  12.0802642  73.2698202   1.1238701  12.5769664  73.1930256   1.9384974
  11.7680599  74.1746569   1.1181009  80.7225800  13.5411787  31.1417961
  80.8461380  12.8889453  30.4521918  81.6106415  13.7899792  31.3980579
  78.4044409  45.5220127  28.7419367  78.0779076  46.3207245  29.1562581
  78.6743879  44.9661350  29.4729376  86.8767643  65.3827858  28.1974339
  87.7100277  65.6379128  28.5934258  86.9118500  65.7442236  27.3117900
  57.1982813  44.6711349  29.1468215  56.5233850  44.4697666  29.7950482
  57.0882559  45.6051636  28.9687443  96.6467857  89.2229080   1.1754069
  96.6860962  89.1335392   0.2231985  96.4459324  90.1473808   1.3211216
  99.5425892  39.9367857  27.5129294  99.2973137  39.3290758  28.2106137
  99.9092579  40.6926727  27.9716396  73.4349775  71.7680788  21.9346905
  74.1148138  71.9724703  22.5767803  73.1846905  72.6178646  21.5721273
 105.0819969  62.1318150  26.3745189 105.2291679  61.4557743  27.0359874
 105.7477951  62.7947760  26.5573573  36.7336917  13.1780720  29.2588019
  36.3005209  12.8324473  28.4783292  36.0568333  13.1617641  29.9354315
  80.2449608  32.5390196   5.4681766  80.2601814  32.9766297   4.6170023
  81.1479187  32.5926852   5.7812572  73.9009809  65.4014921  10.4085994
  74.2963076  66.0525799   9.8289132  73.3280325  64.8892450   9.8380172
  78.9126778  86.5078545  29.7494483  79.4836950  86.9487095  30.3785849
  78.7232018  85.6599426  30.1511788  81.2031174  92.6154613  35.1481247
  80.6516743  91.8721390  34.9039769  81.2388992  93.1564522  34.3592739
   2.1004345  74.6591520  20.9379721   1.3266708  74.2012453  20.6095719
   2.1195270  75.4801941  20.4462790  81.4790344  21.9098687  18.5096002
  81.2190342  22.2315884  17.6463926  81.1597824  22.5751328  19.1192985
  65.4593324   1.9241207  81.8382621  66.3470601   1.5699356  81.8903601
  65.3277253   2.1046607  80.9074998  84.4730091  73.1991339  19.7565699
  84.1089630  73.6608219  20.5119157  85.1712704  73.7719345  19.4394708
  87.3946095  49.2634010  49.1476727  87.1615791  49.5410776  50.0335741
  88.2884598  49.5827150  49.0239239  81.4257145  26.9165325  29.2660809
  80.8369350  26.8829894  28.5121274  81.4251709  26.0233760  29.6103239
   3.8967277  59.0484905  24.0842414   3.2062484  58.9347410  23.4311461
   3.4920742  59.5788050  24.7707248  62.9584169  73.1194639  33.5561228
  62.9743528  72.8764248  32.6304293  62.1771288  73.6649418  33.6471200
 109.4287202  99.3246573  91.3678310 109.5992610  98.5038775  90.9058029
 110.0373217  99.9510019  90.9759978  75.5988264  46.8586206  16.0661876
  75.6486845  47.6666164  16.5769589  76.1187506  47.0380259  15.2827811
 102.3402786  18.6440206   8.0109847 101.8013287  18.0223179   7.5218445
 102.3633575  19.4263375   7.4599135  34.0894126   4.8710601  69.2426241
  33.2093715   5.2100151  69.4065273  34.0241145   4.4362991  68.3923591
  66.3692236  17.8331280  23.5367131  65.6984854  17.5187588  24.1429424
  66.9302273  17.0725751  23.3848429  97.3269463  53.5271978   8.8971508
  97.1570587  52.6637030   8.5206574  97.0219612  53.4582472   9.8018396
 100.4535815  99.3030899  81.2778378 100.0807997  98.8525837  82.0356691
 101.2200877  98.7806194  81.0417700  88.6978436  58.8407850  40.8350086
  88.9232731  59.0862656  41.7323112  89.5054054  58.4714746  40.4776621
  63.9651060  65.7016754   8.1101918  64.7582531  65.5206490   7.6058328
  63.3350897  66.0153532   7.4614102   7.6899101  55.8699179  19.1823137
   8.0366947  54.9809265  19.1070402   8.2750274  56.4017344  18.6428273
 101.8552494  15.6606281  24.5290780 100.9471989  15.4607153  24.3016577
 102.3252296  14.8397994  24.3821502  54.0416527  67.8276157  55.9624338
  53.8747835  68.3094501  56.7725134  53.1987381  67.4315643  55.7413626
  74.8323679  58.1324482  27.4707675  74.2189455  58.7598610  27.8532577
  75.2774620  58.6233282  26.7799997 112.4792099  49.6234465  54.9462080
 112.0499325  48.9182806  55.4306602 111.7669964  50.2147198  54.7025299
  48.7799788  78.0961227  27.7251983  48.1097841  77.5041771  27.3836303
  48.4005165  78.9694452  27.6274562 102.2936153  28.7280273  40.2090979
 102.0674801  28.9370847  41.1154079 101.9165516  29.4434619  39.6970320
  85.6012917  43.5967636  25.0191450  86.3551235  43.3712292  24.4740653
  85.7003403  43.0539656  25.8013153  46.2971067   1.1771362  84.8951865
  45.5132913   1.6806381  84.6752942  46.3301706   0.4849021  84.2349178
 110.4861736   4.0381601   7.1763295 110.0026035   4.1166764   7.9986602
 110.4849339   4.9234289   6.8122828  31.3099574   2.2200220  84.6472657
  30.8269881   2.2937076  85.4703957  31.2104606   3.0774705  84.2336041
  84.8433018  55.7226753  39.5914602  84.2729568  56.1148024  38.9302683
  85.6914043  55.6372499  39.1559672  75.5821037   5.5139989   2.9098839
  76.3322163   5.4402602   3.4999040  75.7688761   6.2895012   2.3807867
  57.5039768  66.5773487   7.4863702  58.4488535  66.5051222   7.3513693
  57.2548246  67.3725128   7.0153421 111.6103363  47.8568363  27.2759843
 111.4676857  47.5149345  26.3933802 111.0421181  48.6252451  27.3299098
  45.4874562   8.1106775  84.0702379  45.6722592   7.5281923  84.8069811
  45.9087133   8.9370267  84.3067134   5.5889846  61.4750290  21.5748262
   6.0667659  62.2937441  21.7077255   5.8778240  60.9101057  22.2915292
 108.6144257  47.0959187   6.9599229 108.9942265  47.9519367   6.7618835
 107.9612064  46.9591713   6.2737519  59.5188665   2.6928442  79.1555333
  59.6825933   3.4426086  79.7276128  59.7109365   1.9295232  79.7002197
  12.3767234  78.9704275  10.1502955  12.4956848  78.7125921   9.2361820
  12.7969696  78.2723951  10.6526709 109.3740463  42.4795723  31.9437885
 109.0122223  41.7389441  32.4303961 109.5966434  42.1170092  31.0863304
  86.5083981  63.7845325  20.5775237  87.0056152  64.3136024  19.9537528
  85.5924416  63.9417553  20.3482985  75.9334183  48.4753704  18.5724664
  76.3264799  49.2602158  18.9542425  76.0602093  47.7970695  19.2358422
  99.2865467  38.7707210  15.7879102  99.5069981  38.3602095  16.6240394
  99.5309067  39.6893549  15.9003103  95.6624222  38.7631607  10.0523865
  96.2431049  38.5750389  10.7897151  96.0009766  39.5786929   9.6829003
 105.8915329  44.8450708  42.4912977 105.1239777  45.0094843  41.9435263
 106.1118317  45.7012987  42.8581429  72.7456522  28.8570905  21.0743690
  73.0538702  29.5365024  20.4746723  72.9715252  29.1853809  21.9446778
  83.5349083  26.5007091  55.6061363  84.1884995  26.8632603  56.2041426
  82.9272175  27.2233415  55.4488325  39.0578984   6.6867845  89.8016370
  39.0712785   7.2158067  90.5992522  39.8433065   6.9536798  89.3240095
  51.0825586  21.9687581  12.7564335  51.3930035  22.4801826  12.0092404
  50.5418491  21.2810707  12.3679101 101.8693256  21.1044884   0.1605435
 101.6090584  20.1886272   0.2589757 102.7622128  21.0642529  -0.1820461
  58.7044286 105.5248456  34.4280577  57.8619622 105.1035715  34.2577767
  59.1530656 104.9292639  35.0282621  60.4111814  49.7131014   8.9565539
  59.4833660  49.8382521   8.7572229  60.6386948  50.4567623   9.5146221
  86.6402531  20.6292582  57.3325729  86.9001579  19.7446501  57.5897694
  87.4667168  21.1002088  57.2258377  85.7918739  60.5087709  50.2256823
  86.5971088  60.2498960  50.6737947  85.4287529  61.2073088  50.7701254
  86.5948677  65.4083586  67.5043631  85.6959534  65.1482248  67.7056551
  87.0123863  65.5088615  68.3598185  99.9291801  44.9284267  25.2325726
  99.1993332  44.5669079  24.7297168 100.5860329  44.2321825  25.2356791
  83.3818913  33.1187344  35.4534078  84.1840267  33.6410308  35.4514551
  82.7395916  33.6645293  34.9997616  16.1062239 102.1450203  83.2709235
  16.3786314 102.7433079  83.9666796  15.6352328 102.6995819  82.6489413
  80.6522846  60.5799627  37.8381753  81.0253239  60.1142788  37.0897031
  79.7843313  60.8536863  37.5415850  76.9898367  28.1223941   3.6128822
  77.5738001  28.1374311   4.3711618  76.1506414  28.4353113   3.9506170
  61.9975042  14.3687122  70.8634460  62.3094892  14.9973886  71.5143383
  61.5308046  13.7070672  71.3739813   4.8510887  32.4401045  10.0682724
   4.4440223  32.1428442   9.2545372   4.2910911  33.1559253  10.3686559
   7.7025558  85.2310181  33.6635303   7.9226257  86.1483002  33.5010982
   8.0443908  85.0542641  34.5399666  95.6250000  17.0695245  12.0364058
  95.8880520  17.1841383  11.1232257  95.7249832  16.1314666  12.1985269
  92.0923138  45.9246731   9.8936617  92.8094769  45.3059483   9.7554851
  92.2165489  46.5902996   9.2170984  65.0676535  94.7727173  62.9764068
  65.4381274  95.6505411  63.0680764  65.7977389  94.2355650  62.6687014
 100.7499218  26.9483733  10.2169907 100.8329773  26.3225532  10.9364927
  99.8539448  27.2775912  10.2881277 100.7837105  77.6381969  17.7157974
 100.4858017  77.5808764  16.8079436 100.2904701  78.3713055  18.0838954
 107.8941727  58.6044121   9.0262496 107.8293419  59.0555096   9.8679978
 108.8346100  58.5454750   8.8579041  11.9818973  24.1756647  88.1172985
  11.9294690  24.1580265  87.1616978  11.0979127  24.4082277  88.4014169
   5.9320257  97.8556316  85.4570890   5.0067137  97.6323908  85.3561241
   5.9517382  98.4684580  86.1921329  89.4663525  92.6842213  50.8718824
  89.4205189  92.2824669  51.7394733  90.0957203  92.1461201  50.3917027
 102.9715630  96.2733620  82.4250412 103.4959742  96.7169684  83.0917049
 102.0723769  96.5467852  82.6065284 110.1910686  36.0551047  24.9352217
 110.9996223  36.2760329  24.4729877 109.9738598  35.1741791  24.6302199
  93.1283760  45.5476332   1.5527567  93.4562969  45.2532148   2.4024728
  93.8542461  45.3913355   0.9486681  83.3335876  30.2478814  31.7343712
  83.7012863  29.4511700  31.3519049  82.8826332  30.6766772  31.0070419
  82.1522999  71.6178894  30.6733751  81.7503071  71.7522860  29.8151374
  82.2082424  70.6667614  30.7653570  12.2154476  56.4637089  16.1086464
  12.9009010  56.9910574  16.5188718  12.6426555  55.6315184  15.9057236
   3.4449913  77.6357603  22.8710461   3.7369014  78.2961130  23.4994984
   3.0291225  78.1387758  22.1708584 110.2854729  27.0445490  11.4598966
 110.2731323  26.3142514  10.8412337 109.5009708  27.5506759  11.2486649
  60.6976128  83.3385086   9.5233190  60.5083466  83.1882572   8.5971248
  61.6171265  83.6039352   9.5398897  99.8802853  66.0586119   0.2974891
 100.3019524  66.8037891  -0.1304648 100.6067467  65.5214787   0.6136906
  52.3145818   6.5923374  81.7068196  52.3257493   5.7378976  82.1381367
  52.4888658   6.3980501  80.7858897  63.3871460  50.6955194  29.2905760
  63.4653854  49.7426367  29.3366456  63.6359835  50.9987640  30.1637077
  64.0255784   9.5554893  76.8432129  64.9276971   9.6434085  77.1509314
  63.5651254  10.2969425  77.2362221  35.0355148  10.3248422  90.3961142
  34.8463964   9.8442571  89.5901987  34.1771077  10.6005208  90.7176319
  56.3449048  12.6655166  78.6078203  55.3945016  12.7472179  78.5285294
  56.6029309  12.1316831  77.8563702 106.6219711  45.2905512   4.0509132
 107.4051094  44.7633123   3.8929415 106.9350147  46.1949873   4.0354615
  66.7324018  63.2581902  13.0634475  65.8905602  63.2835007  13.5183048
  66.8139315  62.3538160  12.7606344  81.4408207  76.7338562  25.8885670
  80.5438995  76.4458990  25.7186890  81.6844273  76.2915230  26.7017221
  75.8716774  64.1188908  14.5658767  75.0674152  63.8356066  14.1309631
  75.6083298  64.8786688  15.0851214  94.4570827  56.2005806  34.7226071
  95.0620461  56.9304037  34.8553133  93.8880253  56.2182331  35.4920840
  49.3263435  85.0718784  44.5135021  49.4418192  85.6594276  43.7667227
  49.9072647  84.3336868  44.3295383  78.1429577  41.9438839   0.3158995
  77.7174664  41.5687323  -0.4551045  79.0498734  41.6430283   0.2591469
  44.0197896   2.8000944  50.8312500  43.6286019   3.2428281  50.0781286
  44.6185445   2.1591871  50.4478920  79.6406937  56.5903568  38.8526893
  79.4317389  55.9503984  39.5331502  79.2262411  57.4002647  39.1501999
 107.2196102 102.8408623  15.5229914 107.1294785 103.6391830  16.0433638
 108.1553459 102.6412201  15.5507779 109.2995834  64.4355822   3.2792607
 109.5413399  65.2649450   2.8670144 108.4485149  64.6075106   3.6821899
  34.6219444  84.8820114  23.8012791  35.2742887  84.3614674  23.3325434
  34.0206981  84.2356777  24.1713953 109.5503616  68.1958818  32.8127241
 110.1901054  68.6204243  32.2411251 109.9691963  67.3755693  33.0733013
  72.8272533  82.1189880   3.5004333  73.6130476  81.5729618   3.4757826
  72.8576946  82.6194763   2.6850682  75.3086805  49.3930626  14.2017663
  75.3388739  50.1985502  14.7180092  76.1741400  49.3354559  13.7969327
  88.2344341  83.5599709  28.3980083  88.9604855  83.2358360  27.8650856
  88.5852051  83.5895157  29.2881298   4.9823378 106.8734615  90.8757057
   4.4484900 106.0829371  90.9551205   4.4713400 107.4516600  90.3093136
 101.4860344  82.3342323  46.1100817 101.3263035  81.7418289  45.3753901
 101.2019062  81.8423653  46.8805170  58.9025067   7.7207057  88.8615334
  58.5567712   7.2902315  89.6434510  59.8036241   7.4052207  88.7930835
  26.0071041  41.5117979  16.6782379  26.3028385  40.7650518  17.1989524
  25.6484272  42.1244669  17.3202825 106.2300587  56.2531900  21.1743379
 106.5051270  57.1684790  21.1213231 105.3252792  56.2925720  21.4842653
   3.3915760   8.8925391  20.1502275   2.5379993   9.3222249  20.0953436
   3.2891990   8.2446581  20.8473659  51.6384458  27.8041379  88.2758534
  50.6932019  27.6561086  88.2470712  51.7706823  28.6066167  87.7711052
  73.3766079  27.3512769  13.5012078  73.6741924  28.2598233  13.4541440
  72.5001526  27.4057412  13.8821149   3.2297947  74.4922543  16.0780847
   3.4953643  74.7107029  15.1847851   4.0009452  74.0748453  16.4619124
  43.7054204  42.0416181  88.4388885  42.8793859  42.1363561  87.9646346
  43.6833238  41.1484449  88.7823791  59.6476126  89.3715382  34.3648410
  59.1739464  90.1910973  34.5069790  60.5529308  89.5741463  34.6005821
 103.2983208  77.1645212  27.8671098 103.1810570  78.0924606  28.0706024
 102.5253391  76.9326735  27.3523402  87.0419407  22.6664591  24.4170046
  87.0984554  23.6181879  24.5021534  87.6986694  22.3319316  25.0277686
  98.6433887  87.7670193  20.4029131  99.4445610  88.0625629  20.8353615
  98.2924747  87.0922089  20.9840536  80.7651520  58.9547443  10.4797387
  81.0131073  58.4448671  11.2509537  80.5913448  58.2987738   9.8046625
  82.9211426  68.1556320  41.2996244  82.5348282  69.0060759  41.5087461
  83.7995911  68.1920242  41.6780996  97.7287388  90.6745625  35.7199717
  97.0369720  90.2055931  35.2533269  98.4265614  90.0280857  35.8264971
  21.0563423  51.5210533  25.4300570  20.6008102  51.1569214  24.6710229
  20.4151775  52.1033716  25.8375382  73.1377553  27.0116823  70.8921111
  73.4919213  27.8599660  70.6252778  73.8886785  26.5421216  71.2552297
  85.1982594  77.8942776  38.5896420  86.1041832  77.6813698  38.8137150
  84.6752071  77.2561264  39.0748382  75.4161358  58.6112738  15.6988156
  76.0819626  57.9322958  15.5897081  74.8400974  58.5057163  14.9416685
  57.0292473  73.4759331  24.2022038  57.5221825  73.0526638  23.4992909
  56.2936401  72.8862238  24.3676019 101.8507099  75.3257465  32.8374004
 101.5727997  74.5009089  32.4391031 101.1995888  75.4941893  33.5184956
  67.4357271  32.5498486  16.6632736  68.3443165  32.7553964  16.8833828
  66.9169044  33.1170416  17.2336686  45.1359607  85.0649929  59.2344713
  44.6412040  85.5391216  59.9027872  45.0192882  84.1420460  59.4598293
 108.8961029  85.7863617  29.3630886 109.3284988  85.0124741  29.0020275
 107.9949665  85.7271481  29.0457892  78.1966305  49.7310448  13.0116844
  78.4224224  50.2562857  13.7793922  78.1220913  50.3668118  12.3000097
  34.7718429   1.9457881  62.5485480  34.6139812   1.5138500  63.3880365
  33.8978910   2.1537464  62.2181046   8.4477283  30.8308792  12.6580417
   7.7045776  30.5869985  12.1062422   8.6294414  30.0463843  13.1755173
   7.7037288  71.8973351  34.5622969   6.7908813  72.1760464  34.6347880
   7.6558925  70.9485245  34.4452357  93.0751419  66.5118790  33.1871724
  93.3390331  67.4289465  33.1125140  92.6308250  66.3224649  32.3607755
  79.0011549  25.1554942  33.1829119  78.4660053  25.1314282  33.9761734
  79.0749407  24.2392612  32.9158807  94.5635033  44.1379786  20.2815795
  94.2441845  44.1733789  21.1832500  93.7830830  43.9560223  19.7580731
  76.6051102  87.1856213  24.6352196  77.1007204  87.9491234  24.3391490
  77.2738791  86.5518093  24.8945928  48.7436055  31.7499940  83.8196802
  48.2904767  31.7721670  82.9768187  49.6467446  31.5211503  83.6001277
 111.3283253  36.6695929  10.3035367 111.5200901  35.7693958  10.5664074
 111.1890602  36.6184640   9.3579030  81.7383957  57.0793533  31.0128331
  82.2112465  57.8288841  31.3745522  82.0957756  56.9735003  30.1311851
  97.0095825  66.4491367  14.1208160  97.4095821  66.5680790  13.2593739
  96.6540051  67.3101997  14.3407297  73.0225324  22.5511425  77.5212944
  73.8195466  22.1401231  77.8560353  73.1673860  22.6213710  76.5777290
  93.1464100  78.9614487  23.6845446  93.4576511  78.1982136  23.1978893
  93.6073971  78.9157152  24.5221829  36.3801049   6.0711496  87.3366261
  37.2066688   5.5948799  87.4153090  36.2375306   6.1492460  86.3933313
  92.4514294  62.0506048   8.2771695  92.7099514  62.8467131   7.8128248
  92.8908730  62.1145153   9.1251278 107.6352501  76.1819363  12.3952317
 107.7852154  76.6143084  13.2359421 106.8644810  75.6336641  12.5419950
  56.7025805  40.4961109   8.3929050  55.9163427  40.8680916   8.7925154
  56.8906212  41.0727549   7.6523954 106.8572712  88.9481354  19.1451478
 107.7186584  88.6110592  18.8989365 106.3544655  88.9382839  18.3307004
  69.7382736  55.0484133  12.3497927  69.8968172  55.8719110  12.8112555
  70.6114721  54.7306013  12.1201193  85.4654980  76.7774487  25.2477980
  85.3492069  77.7268028  25.2857280  85.1451015  76.4629364  26.0931754
 109.0854645  65.4763365  36.0806656 108.7759876  64.9445486  36.8139172
 108.2968903  65.9013796  35.7434344  54.5731305  28.7875288  72.0582211
  54.7845601  29.3574064  71.3187874  53.6254834  28.8726633  72.1629179
 105.6110096  54.8324203   9.4301224 105.2785301  55.0791550   8.5670966
 105.2552986  55.4950523  10.0222504  74.4991541 106.0532475   3.3573472
  74.4348097 105.1577377   3.0254507  74.6296835 106.5896893   2.5754085
  96.2503338  74.2215014   3.7844598  96.1789417  73.2687998   3.7253293
  95.7463074  74.5462227   3.0383039  93.4974289  54.3007517  50.8002615
  92.9040527  54.8336077  51.3296032  93.3181572  53.4006882  51.0722494
  93.7814903  40.0943995  17.1307325  92.9046631  40.3300381  16.8276298
  94.3148613  40.0838804  16.3359761  81.3240337  46.2180948   5.3505206
  81.5788555  46.5717793   6.2026972  82.1418858  45.8981943   4.9697080
  97.3371124  72.3515272  29.2280650  97.4801636  73.1635141  29.7143173
  96.5785503  72.5347567  28.6737728 102.1707916  57.5933504  28.7185073
 102.2009659  57.4019909  27.7811170 102.8503799  57.0366478  29.0986013
  81.7889118  99.0147591  42.8847933  81.1088085  99.1858959  43.5362577
  82.5980663  99.3150043  43.2987261  97.7196312  59.9577570   8.4549886
  97.2320366  60.7660723   8.6134338  97.8862762  59.6034431   9.3284422
   5.2027705   1.2119102  21.4096618   6.0975840   1.5178680  21.5577579
   5.3050520   0.4160880  20.8877182  13.4594394  78.5526466  30.2239490
  14.4046165  78.6150312  30.3616786  13.0968811  79.2914295  30.7128096
  89.2716408  44.3849564  69.0226030  89.0050316  44.5656157  69.9239969
  89.0092564  45.1652861  68.5342646 102.8846169  64.4838619   6.7598748
 102.7792358  64.4265413   7.7095282 102.9567146  63.5739708   6.4715403
 101.3188839  72.4902391  45.4875517 100.9628582  71.8517017  44.8696899
 100.5954838  72.6722050  46.0873985 105.0235462  74.7970343  20.2149534
 104.3000698  75.0741529  20.7771063 104.7437382  75.0332737  19.3305707
  17.1308134  97.3992127  69.8260320  17.5096892  97.2390669  68.9617169
  17.7046583  98.0555456  70.2212179  94.4045830  56.5073967  17.6362777
  93.8558006  55.7914782  17.3160732  95.2836323  56.2937021  17.3234832
  92.1684647  65.4712200  30.6867790  93.0293655  65.7208729  30.3509903
  92.2072887  64.5176220  30.7601023  75.0867033  37.9004359  16.3019276
  74.3006516  37.9245663  15.7562447  75.6411362  38.5990000  15.9543002
  96.4429951  65.6675148  37.5699210  97.3180199  65.6015396  37.9523039
  96.5886497  66.0440254  36.7020178  94.3098259  54.0457296  30.5932879
  93.5689831  53.7282181  30.0769877  94.9326515  53.3188772  30.5906343
  99.4862843  75.9287882  30.9827185  99.5303822  76.6369820  30.3402591
  99.6188831  76.3618231  31.8260050  36.3598966   0.3994243  77.2412086
  36.2746619   0.7673662  78.1207455  36.1548614  -0.5293019  77.3491991
  96.3163280  57.0187521  14.1948009  96.4200306  57.5555134  14.9805248
  95.8390045  57.5792933  13.5830903  17.3997261  82.0174885   7.4824822
  16.6535999  82.1454716   6.8966949  17.1137001  82.3854256   8.3185673
   6.7562725  77.4120378   4.1457787   6.5947296  76.5643501   4.5599708
   6.5407516  78.0540800   4.8222184 105.9355545  46.9134855  34.7630334
 106.4689159  47.2146893  35.4985905 106.4334869  47.1678734  33.9861274
  78.5642957  17.9223125  86.7578000  79.0525769  18.0890720  85.9515697
  78.3513974  18.7931316  87.0933378 100.6550407  79.6426678  44.8151636
 101.1269188  79.5419502  43.9884710 101.2221050  79.2297935  45.4664707
  92.7234936  39.9929070  13.1858599  92.7308369  40.9278774  12.9809034
  92.5410843  39.5656729  12.3489428  79.7829866  28.0488920  18.4971559
  79.4876623  28.9534378  18.6011434  79.1311312  27.5286150  18.9668643
  54.2337515  16.1734962  16.4967847  54.5709898  17.0625495  16.3868642
  53.4709456  16.2753486  17.0659828  76.9590569  73.1270695  28.1384301
  77.5198841  72.5193310  27.6563883  77.3844719  73.2208252  28.9907598
  95.3675652  91.6324425  32.5600338  95.1226807  91.7753124  31.6457844
  96.3176537  91.7479706  32.5743628 105.9736678  85.1789897  79.0584815
 106.8037793  85.0167173  78.6103535 106.1271235  84.8914140  79.9584723
  72.9825115  11.5963161   6.2135684  72.4933147  11.5333140   5.3932345
  73.8569307  11.8825853   5.9496057  71.4388608  47.6397626  80.9017170
  71.2195634  47.9889505  80.0378859  71.7491674  48.3989542  81.3952399
  81.1090755 103.1644344   5.1974058  80.2589989 102.7682686   5.3888106
  81.3310719 102.8443623   4.3230492  97.8764057  85.0071812  18.6483133
  97.7214336  85.5698967  19.4069731  97.0006943  84.7708321  18.3425391
 105.9696579 105.6281567   1.2943511 106.5575790 106.1826229   1.8073402
 106.4701366 104.8269939   1.1397961  43.8626336   4.7272794  48.7032640
  43.0159520   5.1416748  48.5370434  44.4702100   5.1811759  48.1192673
  89.5005512  54.0023613  19.6998465  88.6432648  53.6645269  19.4406652
  89.5454979  54.8719263  19.3022692  46.8302488  72.9790068  61.1477089
  46.5512180  73.2507944  60.2733469  47.7277279  72.6688242  61.0270834
  10.1205347  85.7678741  86.1829132   9.2418860  86.1455625  86.1433143
  10.5176256  85.9965413  85.3425211  83.4731483  60.4906178  23.8255835
  83.2409191  60.2208424  24.7141337  83.4275150  59.6848059  23.3109856
  87.1642971  45.2531099  35.3453541  86.3412952  44.7696114  35.2737904
  87.8063869  44.7002363  34.9000621  77.8635550  71.6370249  19.6178174
  77.6165724  72.2061968  20.3467035  78.5288668  72.1333742  19.1411328
  93.2472706  71.0578012  26.7688441  92.4683762  70.9443998  27.3135400
  93.3897686  70.1981354  26.3727355  59.7310114  67.1736526  14.6266460
  59.1876984  66.6817808  14.0109313  59.1046333  67.5944853  15.2155268
 102.2575378  51.7774773  10.7703304 103.0193233  51.2603951  11.0321283
 102.4795723  52.6744366  11.0201252  51.5558529  37.7773857  36.4235353
  51.0912228  38.3607626  35.8235192  52.3471308  37.5251412  35.9476376
  86.6411495  48.3079576   2.1045291  86.6366768  49.0725756   1.5287064
  86.3932514  48.6527109   2.9623875  87.2937775  66.8623495  36.6189146
  87.3258877  67.0685911  37.5530815  86.3827515  67.0187426  36.3702869
  57.9447746  87.8507328  38.9207602  57.8821373  87.4446869  38.0562139
  58.5608482  87.2975922  39.4010901  44.8944043   3.2034032  75.1756466
  45.0622415   3.3904569  76.0992647  44.8050927   2.2511833  75.1365030
   3.0093814  47.0799732  12.2610664   2.2425891  47.5717974  12.5549471
   2.6847602  46.5369177  11.5427721  59.6181821   3.3979719  86.0772312
  58.9074659   3.1970804  86.6861374  59.2895459   3.1151931  85.2238447
 106.6832542  42.0875597   6.1066872 107.1909523  41.4868164   6.6521907
 106.6364574  42.8947926   6.6189492  84.9619579  49.8800135  34.7990060
  85.0372601  50.1353168  33.8795590  85.6019878  49.1762447  34.9053502
  76.6797209  52.3806047  17.8093278  76.9603729  53.1273890  18.3382678
  76.8998766  51.6149998  18.3399999  95.9047508  53.9833498  19.3416739
  96.4332104  54.4561720  18.6987138  95.1938820  54.5868444  19.5577717
  84.4824505  81.8612194  11.3643968  84.2608643  82.4418640  10.6363988
  85.1741886  81.2970448  11.0187900  66.0134602  35.0161219  33.7720132
  66.8318748  34.5967865  34.0376997  66.2306309  35.4711986  32.9583955
  98.6195087  57.2987795  28.1565809  97.7299404  57.4407482  28.4802127
  98.6246109  56.3881540  27.8616691  96.8393993  69.6572113  28.6984038
  97.5550461  69.5146322  28.0789304  96.9721508  70.5502653  29.0163040
  52.4137020  47.6520586  16.9106960  53.0157614  47.6270056  17.6544213
  51.6221046  48.0638790  17.2571194  92.0696831  53.1804132   8.2223970
  92.5756931  53.7969112   7.6931375  92.3998928  52.3188353   7.9676819
  83.3888817  95.9817314  17.0818591  83.8369370  96.3208294  16.3069415
  83.0712318  96.7623711  17.5356531  91.7913628  62.4686289  55.7135820
  91.9764042  61.6635275  55.2300549  92.0247936  62.2633219  56.6188955
 102.7522659  68.3892202  16.4999723 102.8125095  68.8709116  15.6750023
 102.8063965  67.4684191  16.2441826 110.6216431  50.5658913  28.1974030
 109.7814178  50.9485292  28.4500885 111.1886215  50.7116270  28.9547181
  82.0744801  78.9756012   5.7985342  81.7239571  79.8147202   6.0972822
  82.7813625  79.2115450   5.1978022  65.4205369   1.4589326  89.6470625
  65.3543615   0.9993856  88.8100005  64.9988412   2.3038404  89.4904316
  15.7012130  53.4902859  20.0403476  16.6266872  53.3061457  20.2010345
  15.6235458  54.4383144  20.1473284  33.1192543  34.7365570  35.4565167
  32.8714897  35.1382995  34.6237850  32.6505519  33.9020491  35.4686856
  81.4398289  93.4405518  32.3785686  82.3697567  93.6654663  32.3489738
  81.3753605  92.6228428  31.8851900  69.6287155  80.5692291  64.4983482
  69.9836063  81.4581299  64.5105839  68.6955738  80.6863308  64.3201017
  73.8899708  52.5763369  36.2159228  73.9762497  53.2594156  35.5509496
  73.4291363  53.0024529  36.9386172   1.9917728  73.4127092  26.6274571
   2.3557331  72.7458954  26.0451078   2.7324344  73.6897612  27.1668005
  95.0911427  71.6315031  31.7577291  95.7177067  71.0376930  32.1712947
  94.8534966  71.1965179  30.9388614  73.7128686  45.3681200  80.6276775
  73.2345914  46.1393659  80.9320963  74.4454812  45.2842920  81.2379849
  21.0756446  65.4584551  30.7377124  21.5152313  65.2813435  31.5693521
  20.1438095  65.3613710  30.9339142 108.1952286  87.0946884  27.0112538
 108.4390450  87.1083450  27.9367805 108.9749336  87.4089622  26.5535092
 109.5124054  86.1685085  22.6607704 110.1208973  86.0917854  21.9258666
 109.0360832  85.3382492  22.6650143  83.5715771  84.2413044  28.5783458
  83.8476181  83.3886719  28.9145565  82.8528690  84.0410519  27.9786801
 109.4426155  65.7054377  11.0718071 109.8932838  66.5497112  11.0536277
 110.1320362  65.0700283  11.2646127  80.0993729  62.8905392  35.0295019
  80.7551479  63.5431290  35.2751064  80.5851078  62.2437382  34.5177054
  88.8929176  99.5457172  21.5406895  88.9198494  99.6283913  22.4939322
  88.6141205 100.4082680  21.2332511   4.6096183  38.4452701   0.6283976
   4.3283702  38.8481164   1.4498878   4.9534465  39.1729283   0.1102003
  69.1591024  28.7408464  81.5554893  68.4984445  29.4246881  81.6656447
  68.8508844  28.2281988  80.8082068 110.3848362  79.5249557  31.2162042
 110.5785275  80.2717686  31.7827630 111.2057400  79.3557978  30.7538915
  22.2030689  98.2969379  50.3467989  21.8418838  97.5014591  49.9556637
  21.7575122  98.3725452  51.1906004  63.9178705  50.0872469  19.7816312
  63.7194204  49.2558289  19.3508315  63.2241535  50.1910973  20.4329443
  70.4566240 104.3356419  36.9745350  70.7967615 105.2291393  37.0214391
  69.9481773 104.3151665  36.1637974   7.5959636  84.2757225   4.8784024
   7.0908214  84.3066406   4.0659320   8.5058643  84.3760872   4.5986822
  92.7793598  97.3286533  37.7479815  92.4241447  97.9513741  38.3822274
  92.9406166  97.8520489  36.9629431   2.1730854  52.9957485  45.9579039
   2.8838874  52.4203968  45.6751299   2.4465515  53.8694334  45.6783915
  97.1837521  53.5564804  11.6754580  97.0950413  53.2178640  12.5663555
  97.9481125  54.1314602  11.7127812 107.1204993  93.7956255  68.1370008
 107.4652716  94.6729439  67.9706228 106.6869113  93.8659828  68.9874614
  75.5532789  70.5617952  17.2176886  75.6952000  70.2496290  18.1113553
  75.5296230  69.7656584  16.6868067  44.8140477  39.6935861  57.6289881
  45.5721330  39.1430967  57.8252066  44.3423127  39.7564619  58.4594977
  59.9959898  75.5731726  21.3786697  59.0613413  75.5539036  21.5843153
  60.4146338  75.1471043  22.1266222  65.1965714  35.7102275   5.0671548
  65.9526539  36.0414743   5.5517650  64.8423529  35.0151682   5.6218195
  84.8214722  51.1264133  37.5437045  84.7549534  50.7232857  36.6780901
  83.9593124  51.5140200  37.6942992  97.0632935  53.5493946  29.0466070
  97.9107189  53.1532574  28.8436770  96.5892792  52.8691006  29.5248747
  83.6032295  53.8138151   5.6729668  83.7322330  54.1464663   4.7847477
  83.7380505  54.5760012   6.2361103  84.7811985  50.5940485  32.0533204
  85.0735569  50.0172567  31.3475800  85.3919029  51.3307238  32.0290828
  89.0401459  74.6644878  17.5382638  88.7412453  75.3700924  16.9646657
  88.7721825  73.8620472  17.0904756  40.3197382  99.8425119  79.4146514
  40.4540346  99.1384714  78.7802005  39.4225500 100.1374596  79.2588008
  59.0721369  74.3773222  45.1346779  59.4863462  75.2294970  45.2705240
  58.5478020  74.4895506  44.3417645  87.0833969  62.9563522  42.9219675
  87.5307369  62.4789715  42.2232342  87.0389271  63.8585329  42.6052237
 109.6956158  39.8548603  15.1547265 110.6273651  39.6897697  15.2990615
 109.5393181  39.5733571  14.2533064   6.7230414 100.4621857  89.8401228
   5.7959364 100.3128880  90.0256352   6.7245005 101.0745304  89.1044167
  58.9506769  49.9192429  25.8551145  59.7264862  49.5382261  26.2664270
  59.1288471  49.8698807  24.9159384 100.1957798  78.9870167  25.2448344
  99.3515396  78.5703468  25.0719738 100.4732990  79.3277216  24.3944645
  91.6677856  50.5356264  22.7246141  90.8234882  50.7663631  22.3371172
  91.6440773  50.9239912  23.5991669  84.1810846   8.4845750  91.7858466
  83.2489442   8.2873504  91.8778433  84.2489289   9.4186370  91.9837126
  14.8953341  82.9779666  80.4965091  14.1047285  83.4719151  80.2792931
  14.7485159  82.1117490  80.1165879  85.9628677  52.1332598  13.1991017
  86.3893795  52.2722673  12.3535228  86.2288857  52.8853798  13.7280488
  14.7905208  76.4719534   7.1225905  14.9194099  75.5236197   7.1394217
  15.5314495  76.8231678   7.6164520  74.7730541  56.5428352  40.5217934
  75.2227068  56.0158920  41.1823797  75.1207113  56.2283611  39.6872425
  72.6898384  72.9852438  29.0103102  72.1853542  73.6022377  29.5404482
  72.1712637  72.1807528  29.0206742   2.2928669  23.8508463  17.3821592
   2.4818184  24.7641897  17.5974143   3.0341293  23.5733414  16.8438780
  84.8683643  75.3388071  49.4335461  85.2032948  75.3449965  50.3302145
  85.2329731  76.1296415  49.0362167   9.3357565   8.1565761   2.9558048
   8.4618285   7.8313732   3.1719723   9.9297240   7.6006317   3.4601530
  15.1372959  48.0207348  28.4735680  14.7465374  47.1472979  28.4480834
  14.3897773  48.6160135  28.5292339 105.5807400  52.0968342  54.4285440
 105.9360695  51.9505453  53.5518646 104.9272537  52.7861691  54.3101645
 108.1860065  58.5749578  18.6183977 107.2771931  58.2745171  18.6230266
 108.3988953  58.7083101  19.5420480  13.1606628  93.2598591   1.2321737
  13.5813285  93.8692284   1.8387592  13.2657768  92.4018478   1.6432706
  91.6346169  45.4156065  26.6670609  91.1634159  46.1950731  26.9614005
  91.5412807  45.4247713  25.7144666  13.8064243  79.6928740  13.8018644
  13.6310913  80.6296349  13.7125993  13.5531475  79.4864702  14.7015762
  96.1182117  89.2825317  19.7233379  95.6488323  88.7126255  19.1141331
  96.8505955  88.7499809  20.0335670  82.6609993  74.9709129  27.9924631
  83.1167412  74.1342211  28.0845547  81.7768574  74.7989988  28.3164573
  76.3218021  89.1475296  44.3413353  75.5971766  88.8563538  44.8948431
  76.1070776  90.0544453  44.1231203  94.5701122  66.5370512  53.0405474
  94.9698639  65.6740522  52.9325247  94.9041748  66.8523312  53.8803291
 104.5586777  73.5086536   4.2159107 105.1397133  73.9869070   3.6243859
 105.0793457  73.3766413   5.0081921  78.3611774  97.4803257   8.1569457
  78.2214928  98.2141590   7.5584477  79.3106222  97.4430370   8.2726955
  76.4447212  41.5656328  18.9424777  77.0182610  40.8003807  18.9015448
  76.6539955  42.0643139  18.1526971   8.3181526  53.0278492  18.9196086
   8.7148811  52.3951340  19.5183718   8.2569362  52.5623989  18.0854392
  74.4612312  60.6535292  36.0611057  74.9074745  61.0986710  36.7814875
  74.9746943  60.8790922  35.2854085  88.3134842  99.3585110  37.7871990
  87.4379730  99.7415352  37.8419709  88.9059067 100.0882244  37.9682636
  37.0799400  79.6361971  61.9303799  36.8666984  80.5404282  62.1608734
  37.9461910  79.6898460  61.5266800   3.9979507  90.8411026  17.9683709
   4.8883201  90.5694866  17.7454197   4.0608741  91.1493778  18.8723850
  95.0874996  84.5068550  28.4180236  95.9943104  84.8031330  28.4964132
  95.1547432  83.6225414  28.0578709  60.7013609  15.2087974  19.7257924
  61.6445734  15.2701377  19.8768926  60.3909018  16.1126518  19.7795844
  46.6830396  24.2664974  90.9735039  45.7444524  24.2669647  90.7856293
  46.7936658  23.5878770  91.6394380 108.8186550  97.4242401  64.4908047
 108.4643650  98.2150841  64.0842581 109.5334911  97.1574593  63.9128065
  94.9129105  84.4718361  38.6988807  95.0910473  84.3898582  37.7619815
  94.8624992  83.5690498  39.0129900   8.1206180 105.7034302  25.9604573
   8.9895107 105.8158398  25.5749440   8.2273342 105.9703445  26.8734765
   6.5089370  77.6806688  36.3439441   6.4425422  78.5963774  36.0731936
   6.0815288  77.1914530  35.6409383  97.8951454  93.5710335  29.6734858
  98.0786514  94.0805435  28.8842130  98.1617069  94.1416454  30.3942990
  23.7188628  76.0394437   3.0004704  24.2427924  76.6245468   3.5476410
  22.9588702  76.5639169   2.7483475  77.7843523  92.4271584   4.2721239
  77.0758343  92.0795918   4.8138231  78.1789780  91.6539001   3.8689211
  54.4558859  64.2045546  22.3424053  54.8908377  63.3928204  22.6034498
  55.0009775  64.5520401  21.6364598 112.0871544  96.0285854  11.3193059
 111.9175148  95.9719658  12.2596490 111.4215374  95.4673100  10.9216225
  99.1487598 101.1392498  18.4006524  99.6590614 100.5106735  17.8900480
  98.2575226 100.7902622  18.3885634   6.7289783  43.7668276  30.0031567
   6.8717434  42.8643084  29.7180057   7.0792438  43.7949419  30.8935285
  90.5194187  85.5339146  35.9024954  91.2090683  86.0220337  36.3523364
  89.9170017  85.2733040  36.5992045  68.2805538  67.1306372  44.9464989
  67.4618149  66.8445015  45.3515053  68.0093050  67.7533340  44.2720318
  84.9024057   5.0066249  85.4916096  85.1180982   4.1863983  85.9353811
  84.6151780   5.5904405  86.1936713  97.5572968  62.0596075  56.3931608
  97.6338100  61.1598349  56.7106295  98.2137966  62.1255541  55.6997013
  15.6529571  68.5025644  21.3425803  16.5666725  68.3285809  21.5686202
  15.3083850  68.9861059  22.0933723 113.1526231  25.4510229  73.9673555
 112.2464894  25.7000654  73.7853217 113.5046624  25.1894538  73.1165445
 109.8457623  66.0596704  15.0669932 110.6644058  65.6748486  14.7540104
 110.0523186  66.3810444  15.9446514  26.3287975  53.9280844  36.4297533
  26.7557670  54.7842741  36.4590597  25.8176567  53.9429092  35.6205893
  29.1896106  78.5463858  18.2143176  29.8611023  78.6871004  17.5468314
  29.0446235  79.4127703  18.5945702  61.0431623   5.6464879  85.3682065
  60.3631353   5.0419300  85.6653798  60.7625436   6.5015953  85.6941963
  93.3681965  80.7904911   7.8874499  93.3234119  80.2048206   8.6432391
  93.2936287  80.2101040   7.1299416  96.8190956  67.2439241  29.8659158
  96.9712257  68.0493307  29.3715405  95.9689045  66.9304895  29.5574045
  90.3411770  47.2580671  11.7323732  90.9254265  46.7789459  11.1447227
  89.5168209  46.7727518  11.6986084 104.1433144  96.2199020  58.4937286
 104.0173244  97.1066952  58.8312912 104.4065475  96.3457870  57.5820875
  29.1223433  33.8693714   5.0448501  29.8611739  34.4383621   4.8289520
  29.5246985  33.0873489   5.4226953  95.3319931  65.8644819  43.6741209
  95.4811001  66.7026377  44.1117239  95.0040531  66.1021090  42.8068161
  36.5662336  47.2652435  13.3764398  36.9762707  47.8962564  13.9679825
  36.3302183  46.5277624  13.9391601 104.3872833  82.7240944  45.8492661
 103.4448051  82.6973057  46.0143709 104.4649220  83.0694008  44.9599028
  21.4829066  17.4749851  17.5587249  21.3641455  18.4024810  17.3540461
  22.4199488  17.3862075  17.7327824  17.2217418  83.1813717   2.8529930
  17.0506145  83.3854675   1.9335949  17.8897430  83.8135052   3.1183419
 109.7601986  63.8365936  32.5517440 109.7899342  63.2435608  33.3025169
 108.8639450  63.7630463  32.2237849 109.6033382  90.2701283  42.0753002
 109.9615860  89.4641781  41.7033625 109.1308880  90.6791782  41.3502550
  76.4112329  51.0962486   0.8553846  76.8664312  50.6914759   1.5937530
  76.3934946  52.0295000   1.0674290 101.1386490  76.6623878  26.3552046
 100.9709454  77.5054407  25.9340572 100.2692604  76.3263655  26.5731215
   1.6626789  87.8371620  36.6576481   1.8510582  88.7750816  36.6253328
   2.0039798  87.5533962  37.5057220  13.2871868  83.4039497  28.0422306
  12.5618698  83.2127190  28.6368585  14.0224792  82.9004955  28.3916688
   3.1518890  73.2966661   0.9172752   3.1078960  73.0618191  -0.0096251
   2.4071075  73.8827848   1.0514604  14.0201141  86.9620514  20.7439256
  14.6888591  86.8808746  21.4239478  13.3608772  87.5424767  21.1243773
   3.1418850  99.6182632  20.7581854   2.7168991  99.6567154  19.9013662
   3.3118106  98.6869526  20.8996749 100.1716137  34.9248695  11.3131654
  99.8443794  35.8056641  11.1305356  99.4285011  34.3503213  11.1290133
  65.0163888  47.1158521  92.7750424  65.3761052  46.8693273  91.9229508
  64.5391893  47.9285257  92.6075219 104.7177792  41.7449427   4.2735273
 104.8640633  41.2377834   3.4750152 105.5034161  41.5954542   4.7995090
   9.5669700  60.3170824  22.5967336  10.4806758  60.0533056  22.7054024
   9.0775825  59.4944906  22.6051426  93.3493233  55.8943939  10.1037061
  93.7053299  55.3062057   9.4377339  93.5109997  56.7725372   9.7587991
   1.9464733  67.4201012  19.8813128   1.3909198  67.7221823  19.1627383
   2.1635391  68.2158232  20.3670478  52.6306441   2.0025157  39.2472887
  52.0815947   2.7115726  38.9125991  52.5496962   2.0657157  40.1989651
 101.0329342  45.8474827   9.2218012 101.1300564  46.4867210   8.5159868
 100.3273869  45.2713251   8.9277214  73.6281395  94.7960472  74.2366457
  73.1827021  94.9598694  73.4053946  72.9944563  94.2991161  74.7540808
 110.9080982  92.5702953  36.4356232 110.0493145  92.9928493  36.4221859
 111.4726162  93.1897354  36.8980598 111.8636703  74.1588020  21.8331337
 111.7080021  73.7464380  20.9834552 112.5973034  73.6698341  22.2058582
   2.8307296  95.5390263  28.6012936   3.1156017  96.4137745  28.3369136
   1.9662716  95.6756210  28.9889669  15.9830382  18.5163593  58.8906527
  16.6322997  18.9868736  58.3678627  15.4407599  19.2049217  59.2754269
  99.4580650 103.2950306  38.3495426 100.0712109 102.9037380  37.7273107
  98.8243294 102.6007652  38.5300922 106.1944675  37.3915195  42.0876503
 105.3222656  37.6795793  41.8183517 106.1038589  36.4483643  42.2235870
  13.1539108  60.5666637  28.4675717  13.2989360  59.9824858  29.2118406
  13.4378578  61.4261580  28.7788248  49.0563109   1.8794822  25.2572942
  48.6286929   1.0389232  25.0934863  49.6952536   1.6931152  25.9452200
   0.2643062  84.5339203  38.1417394   0.6547214  85.1327610  38.7782860
   0.5673839  83.6669159  38.4113383  25.6723928 101.0951424  28.9211607
  26.3253211 101.0502607  28.2226610  26.0889053 101.6196317  29.6050167
 100.9559771  82.8405588  77.2404862 100.3052422  82.3131579  77.7037692
 100.7992264  82.6553028  76.3145590  57.3969936  11.6103852   6.8409467
  56.6616917  11.9833386   6.3546705  58.1335831  12.1883440   6.6418695
  90.8245179  94.9688213  80.3602481  91.1733386  95.2024096  81.2204767
  91.2861630  95.5442160  79.7502995  13.7266301 105.0366244  44.8058605
  14.1746425 104.8194288  45.6233835  13.6795377 104.2069603  44.3308115
  51.0868025   2.2521651  21.1219192  51.3006592   3.0146441  20.5842161
  50.2450895   2.4699388  21.5223312  74.0373039  29.8404956  14.5529056
  74.9724388  29.6370006  14.5715773  73.9990568  30.7957339  14.6007442
  96.2244317  77.1642440  91.7470220  96.7581221  76.4881938  92.1645892
  96.6973874  77.9795998  91.9135880  73.5018539  14.6730328  21.3647723
  72.9512262  14.0461910  21.8339324  74.1675091  14.9312294  22.0023227
  61.2025881  22.9758930  41.0317802  60.4270458  22.6222038  41.4672947
  61.7482901  22.2096467  40.8548403  31.9385171  32.7112222  20.2621794
  32.1663094  33.3146930  19.5549560  31.7431855  33.2788229  21.0077691
  10.1265003  34.0638423  17.4338138   9.9822189  34.1860652  18.3721519
   9.2510559  34.1075420  17.0491922  88.0254218  53.9970733  92.1939344
  88.0562779  53.7329961  93.1134685  88.6710068  54.7004160  92.1249390
 111.9884917  37.1644061  91.9541737 112.6989361  37.7898639  91.8116846
 111.3429782  37.3775595  91.2802951  25.5790853 103.1925315  22.0072436
  24.9327468 103.0805526  21.3101482  25.4324197 104.0819371  22.3292375
  94.8424145  86.6118568  89.9002856  94.0731045  86.0440128  89.9444133
  95.1854798  86.4821117  89.0161434  82.4694630  71.9757133  89.8359007
  81.6955659  71.9724923  90.3992036  83.0818364  72.5670224  90.2735998
  15.0718020  76.1773437  90.7030882  15.2261160  75.2960079  90.3629902
  15.8360289  76.3603824  91.2496102  77.9296970   4.7864822  26.4243317
  77.8247261   3.8380712  26.3486362  78.8715649   4.9150133  26.5365291
  63.5784292  34.1493893  26.8743777  62.9414606  33.4708953  26.6504383
  64.0592384  33.7898445  27.6198840  63.8108921  39.5010424  16.9583416
  63.3433342  39.5501709  16.1245501  64.0534878  40.4068041  17.1506357
  64.2970228  33.9440846   7.1035796  64.1452217  34.4995260   7.8682178
  65.0992346  33.4648919   7.3111010 101.1333605  90.2199286  75.7000769
 100.6298062  90.9222715  76.1116374 101.7675778  89.9573010  76.3671816
  81.0078239  15.6941593  12.6119912  80.5582237  15.1365590  13.2469487
  80.3024483  16.1027563  12.1102750  78.5114479   9.7860241  58.0925322
  78.2944107  10.2753448  57.2989988  77.8322124   9.1143006  58.1530142
  72.2475958  34.9822545  41.4241314  73.1540251  35.2187443  41.2274456
  72.0197248  34.3328786  40.7588339  15.7660864  45.7455634  91.3711571
  15.3836344  45.9726637  90.5235780  16.6423987  46.1300372  91.3492455
  80.1247025  21.5877485  57.1031809  80.4063129  20.6879401  57.2683191
  79.3631077  21.4990234  56.5301752  28.7842558  67.3152249  91.0029404
  27.8821085  67.3899525  91.3140183  29.2398356  66.8438118  91.7004020
  78.7589645  68.5185909  25.9378242  78.8413620  67.5697803  25.8419466
  77.9755783  68.7429380  25.4356217  92.0759010  13.9489555   5.6207258
  92.4752617  13.8904190   4.7527850  91.1348057  13.8910389   5.4557586
  31.4610004 103.0553109  18.7777412  31.9942569 103.7818456  19.1002560
  30.5885696 103.4316332  18.6616492  45.3009938 103.5460151  14.8681581
  45.4452657 104.2452804  14.2306280  45.5108880 102.7418736  14.3932545
  80.7124421  62.9902720  75.4775155  81.1854884  62.5123172  76.1587060
  79.8306843  62.6180964  75.4921484  28.5271882 101.7918653  16.1726928
  28.4907293 102.5097856  16.8047476  28.0324411 102.1116239  15.4182315
 111.2588832  74.3495577  84.6444166 110.6644341  74.8222106  84.0617830
 111.7024323  75.0362175  85.1424080  46.7376660  96.6094065  32.5432992
  46.8294000  97.4638600  32.9648757  46.2975072  96.0659087  33.1968284
  48.2871199  28.6541772  16.2963367  48.5659933  29.1349888  15.5170536
  48.7447309  27.8155541  16.2368643  22.5871991 101.0678608  32.5677085
  22.6530265 100.7657213  33.4735847  23.1353091 100.4595835  32.0719171
  88.1486842  54.0584025  83.1898189  88.4671971  53.1695669  83.0324889
  87.8341386  54.3547956  82.3357439  81.4782616  64.0134972  85.2021176
  81.4208218  64.1435712  86.1486972  80.6835171  63.5292523  84.9782348
  82.6505184  11.4944410  35.1063323  83.2975483  11.1171591  35.7023501
  82.5494194  10.8387303  34.4163656 105.3024575  70.5569499  86.3323826
 104.3787381  70.7493775  86.1713219 105.7726285  71.0771518  85.6807977
  71.0848141  24.5658588  10.1342738  71.5510511  25.3729033  10.3523028
  70.2526522  24.6361661  10.6020272  33.1780290   7.8654067  81.1082089
  34.0445851   7.6714532  80.7508612  32.6109409   7.1860712  80.7433212
  69.9012947  29.2476392   8.7397337  70.0199556  30.0796032   9.1979766
  69.1944742  28.8110328   9.2151380  99.8284098  70.8018201  63.3194077
  99.5870825  69.8848229  63.1886137  99.5610234  70.9940081  64.2181838
 104.8594758  60.9447526  83.8857836 105.3871962  60.3896027  84.4598490
 104.2527911  61.3915198  84.4761753  43.4560299  24.0988874  19.0601373
  42.5509977  24.2807484  18.8069987  43.7117052  23.3537674  18.5163951
  80.0735283  19.6064866  18.8850522  80.7237148  18.9093590  18.7984324
  80.5675411  20.4138350  18.7423360  48.3356809 102.4026070  11.7723072
  48.6371087 103.2374487  12.1306598  47.4461221 102.5803042  11.4668095
  42.5312376  12.5946629  62.7311039  41.8684006  13.2849848  62.7128744
  42.2406244  11.9660592  62.0703220  84.7522545  44.4177914  22.1211958
  85.2418041  43.6194801  21.9230223  84.0322495  44.1247845  22.6797390
  79.1039658   0.9027260  58.8539314  79.1581440  -0.0524234  58.8225317
  79.8847914   1.1711206  59.3381882  22.8614473 100.3810931  35.1431322
  22.4570893  99.6611077  35.6272268  23.6033725 100.6478036  35.6859398
  51.2111664  -0.3118405  22.1023726  51.1788750   0.5952322  21.7983866
  51.3393307  -0.2429670  23.0484509  89.1893622  85.5669778  79.2725873
  90.0006243  86.0206907  79.0440452  89.4414183  84.9627131  79.9708450
  33.4477186  23.9447904  50.1304913  33.4789157  23.0468321  50.4605389
  32.8314996  24.3919277  50.7106447  26.6084575 105.1642360   6.0762441
  25.6744718 105.3735850   6.0849273  26.6444873 104.2228270   6.2456042
  69.1364908  29.9316311  37.2050118  69.0112019  30.0789094  36.2675428
  68.9635611  30.7831979  37.6064587  59.2600060   1.1153632  19.3641770
  59.5670652   1.7660552  18.7328708  58.7066364   1.6103311  19.9683464
 105.3930518  84.1669577  92.4422187 105.2030465  85.1050013  92.4279327
 106.3466593  84.1167157  92.5081032  39.6092725   0.4973580  20.8309913
  39.9182796  -0.3336833  20.4702759  40.0381851   0.5623549  21.6842461
  84.3290424  12.9057026   8.2883263  84.9229813  12.6262462   7.5916386
  84.4774342  13.8481474   8.3658659  72.4247074   9.6401703  19.1730607
  72.3967648  10.3149116  18.4946978  72.8922939   8.9107358  18.7662208
  76.4532185  11.8260515  22.2266889  76.3412714  12.5933230  22.7879333
  76.8612146  11.1718404  22.7939463   8.1911372  91.5622490  72.0892895
   8.8482092  92.2575348  72.1218121   7.5928496  91.7642754  72.8086412
 101.1715028 102.8410070  71.2418902 100.5824897 102.8721397  70.4880178
 100.5973098 102.9543560  71.9993103  85.1151276  28.1263065   1.9383110
  85.7192898  28.0914640   2.6799363  84.3115425  27.7214670   2.2647922
  96.7594051  33.9711928  39.3892837  97.1814156  34.8301983  39.4050121
  96.7277527  33.7368369  38.4617567  59.7110701  31.2610555  30.1750755
  60.0673246  30.5419183  29.6533895  58.8472557  30.9530258  30.4492569
  85.8073425  61.9712305  26.0104036  86.1626816  62.4889326  25.2879405
  85.2432537  61.3243008  25.5867124   3.4719752  86.5976351  84.2505819
   2.9762839  86.1349409  84.9261862   3.0684708  86.3230746  83.4271550
  74.0152121  30.7181287  30.6034899  74.6516466  30.1303411  31.0105371
  73.8846684  30.3590441  29.7258520 103.6526057  37.4328178  83.3410001
 104.1749903  37.0733111  82.6239950 103.0259511  36.7404979  83.5513181
  52.2328663  18.2192266   8.5098338  52.0010900  19.0422797   8.0796069
  53.1095266  18.3719027   8.8625133  76.1092374  52.7330782  90.9193057
  76.1012670  53.2123404  90.0907672  76.2225720  53.4100198  91.5864920
  73.5793066  11.0767198  21.7306042  73.2888174  11.1638153  20.8227158
  74.4921160  11.3646019  21.7186809  77.6357985  18.6056113  19.3530667
  78.5255003  18.8658333  19.1144300  77.4101400  17.9197872  18.7246108
  63.6397409  -0.0200779  80.7288421  63.0618619   0.7065504  80.4958165
  64.4569253   0.1660268  80.2664507 104.8388577   4.1818890   4.6179670
 105.3012085   3.3669114   4.4223359 104.3101120   4.3504435   3.8380617
  49.2175245  10.3954363  36.2071681  48.6221123  10.9578454  35.7117772
  49.8321295  11.0021126  36.6200113   8.2408331  73.4983366  85.4717952
   8.0592249  73.2417112  84.5676989   7.7077673  74.2812222  85.6102360
  96.6858145  76.0854977  84.8849494  95.8398053  75.8357995  85.2566398
  97.3298308  75.7498067  85.5084771   4.5229910  36.8789797  82.6174677
   4.7682761  36.1428075  82.0570052   3.5915898  37.0133703  82.4423731
  46.9241380 100.1323033   8.7636101  46.0967778  99.9251259   8.3291209
  46.7072343 100.8452577   9.3643427  90.1384449  14.3003726  24.5427227
  89.9531364  14.7666061  23.7275434  90.1106071  13.3746576  24.3008375
  19.5849989  65.9482508  79.2472601  20.3629206  66.5030628  79.3042708
  19.8176955  65.2744001  78.6085034  41.6560459  39.2657256  24.2322922
  42.3312473  38.8399863  24.7605705  40.8865404  39.2896152  24.8010874
  61.1132097  57.9464912  14.1718423  61.9218731  57.5432491  13.8561010
  61.3882113  58.4861708  14.9130249  59.3190908  38.1493187  12.8846931
  58.7442732  37.4474716  12.5793564  58.8065672  38.6053205  13.5522342
  15.3798388  54.2179972  67.1013081  14.8998736  53.3974967  67.2137487
  14.7405718  54.8189157  66.7185963  66.1012650  22.4959707  35.2831030
  66.5633154  22.0843840  36.0134006  66.7961693  22.8605270  34.7349787
  74.6514940  19.5762110  23.6136603  74.6279669  19.0094793  22.8426266
  74.7323751  20.4612088  23.2580376  99.8544693  32.4672556   8.2102430
 100.0358868  32.9083228   7.3803163  98.9587593  32.1425319   8.1181067
  64.0499020  42.3358440  35.2630401  64.3763161  41.8408203  36.0144663
  64.5313931  41.9816208  34.5154285  25.6240702  11.5445840  23.7187934
  25.5388522  11.1063814  22.8720641  26.5041137  11.3170278  24.0187478
  43.8553952  99.7993488   7.9988247  44.0303945  99.3853772   8.8439476
  43.0813073  99.3455315   7.6655459 110.0254151  77.7851313  92.3840005
 110.7257697  78.2675379  92.8233413 110.0155780  78.1354063  91.4932466
   3.3762978  39.9899238  82.2164250   2.7225016  39.3381613  82.4693883
   4.1770933  39.7106307  82.6602179  86.5432644  40.5999994  18.9668870
  87.4553776  40.7700205  19.2021990  86.0358906  41.1589098  19.5554590
  55.4664230   1.2300159   5.0131422  56.3443661   1.0363340   4.6846038
  55.1516056   1.9386518   4.4519311  70.0014350  54.1972170  92.1781023
  70.9492180  54.1543486  92.3050054  69.6825525  54.7045835  92.9245098
  78.2507467  22.7929711   8.4519523  78.6364603  22.7852035   7.5759411
  77.3678398  22.4446273   8.3279997   6.4959811  82.6976054  90.1161924
   6.6234968  82.3443549  90.9966392   6.8524264  83.5848730  90.1601632
  64.3191910  42.3747492  24.7150779  65.1741457  42.2588778  25.1296306
  64.4663286  43.0425215  24.0452528   4.5391463  70.3427845  83.4290570
   3.9181040  69.6813875  83.1239516   4.0812014  71.1747342  83.3091635
   2.8480484  36.7021823   7.5746477   3.4289600  37.4595094   7.6469040
   3.0410148  36.3336945   6.7125499  89.8547265  38.9064305  84.8607326
  90.3678748  39.5691221  85.3230620  88.9606234  39.2481404  84.8674369
  57.9762650   1.9276248  22.2515512  57.6002026   2.5317848  22.8917050
  57.2181368   1.5251867  21.8278575  85.7080936  35.2589154  20.6078386
  86.2586021  36.0339165  20.4958367  85.2456093  35.4107213  21.4320326
  77.4328586  87.5509923  85.1367730  76.9078395  86.9741648  84.5819235
  77.2665950  87.2428530  86.0276366   6.4598463  73.0873447  58.5778439
   5.6926058  73.6063641  58.8190973   6.7412470  72.6806670  59.3973887
  60.5954409   4.0403420   7.1673173  60.2004528   4.7359207   6.6415930
  60.8829975   3.3898467   6.5266943  75.2127409  13.3606589  14.6403980
  74.3796778  12.8992319  14.7369373  75.1235247  14.1348612  15.1961696
   5.7157515 102.6975744  86.6122896   5.2989004 103.3119028  87.2164953
   5.5689524 103.0769508  85.7458300  62.5525045 101.6798789  34.4647598
  62.7335595 100.7857007  34.7544074  61.6186380 101.6791338  34.2547035
  60.4486513  30.6366062  24.3342400  59.8601294  29.9232984  24.0871191
  60.0498390  31.0157084  25.1174784  81.9154930  50.1662111  39.7163153
  81.6153622  49.9047709  38.8457966  82.0282745  49.3412781  40.1885414
  11.7275955  15.8544540  37.6127553  12.1750690  16.4304352  38.2326365
  12.0211460  16.1542737  36.7524242  83.7185523  62.2490781  65.3261149
  84.6452233  62.0166540  65.3851974  83.2596585  61.4091491  65.3390396
  87.3821351  39.5008259  77.3691249  87.1576544  39.6341866  76.4482260
  86.6900489  39.9523824  77.8521777 106.7246628  11.0032547   5.0191540
 107.1067715  10.2017546   4.6616310 106.5842819  11.5630150   4.2554840
  88.8758850  31.9214106  34.7350121  89.1728878  31.1491132  35.2162337
  87.9604340  31.7358708  34.5258355  17.5524138  98.4986513  86.5242046
  17.4162577  98.9610880  87.3511529  17.6551436  97.5811546  86.7769540
  68.1685066  33.4690857   3.0157435  67.8942347  32.6208639   3.3643481
  69.0651560  33.3250999   2.7132091  85.1249695  40.5219460   0.4504709
  84.7571754  41.2249041   0.9860223  84.4050407  40.2543354  -0.1207656
  24.2172386  45.8181858  31.2821579  24.6412899  46.6636658  31.1352825
  24.1208889  45.4432726  30.4067230  91.6590691   2.9520786  15.3284574
  91.8852139   3.8820657  15.3430939  91.1676407   2.8123185  16.1379027
  35.6664751  96.1541384  54.8194659  36.4212035  95.6158989  54.5808876
  35.6165121  96.0873478  55.7730258  90.5460450  81.2223023  66.8386424
  90.0909087  81.8961161  67.3436749  89.9156329  80.9586232  66.1683572
  64.4047356  27.7788019   8.0942565  63.5248995  28.1288815   7.9544055
  64.9880981  28.5123277   7.8996801  67.8923225  27.7383637  32.7975821
  67.0556545  27.5043440  32.3957634  67.6618195  28.0244446  33.6814713
 107.1129417  15.6909072  22.4036670 107.5974751  16.5070117  22.5278831
 106.2008190  15.9657454  22.3102880  44.8547457  45.3973716  80.9262228
  44.6620844  45.3895628  79.9886453  44.4388579  44.6036678  81.2628198
  22.9809855  96.5703457  45.3143299  22.9744814  97.2529333  45.9853494
  23.6897562  96.8228977  44.7226370 101.9722271  11.0341299  25.6506705
 101.9055557  11.6641521  26.3682055 101.4487648  10.2864242  25.9390306
  73.5791349   3.9240319   1.6099310  72.8805065   4.4595289   1.9859546
  74.3870306   4.3235064   1.9323571  79.9651667  62.6441192  78.3229065
  80.8118197  62.2139173  78.2031679  79.7971770  62.5846630  79.2633725
 105.5632591  44.5580244   7.5528413 104.9922180  44.5062542   8.3193028
 105.0111008  44.9349499   6.8678039  99.6468830  32.3164129  27.5752687
  98.9205074  32.7714062  28.0014110 100.2229881  32.0583463  28.2948065
  87.7420235  13.0757940  36.1521006  86.9182682  13.2528055  36.6063476
  88.3903027  13.6049640  36.6167974  94.8042866  96.1371964  76.7195618
  93.9779803  95.7454222  77.0023418  94.9146983  96.8995922  77.2877133
 107.0283031  22.0489478   9.9253726 107.5346661  22.8489971   9.7848451
 107.3785877  21.6833711  10.7377040  61.2968302  20.3256083  22.4358296
  60.7780743  20.9552145  21.9351125  60.6478071  19.7702694  22.8678083
  13.5107516  82.9886716  84.9862969  14.0484427  83.7048643  85.3242189
  12.6095770  83.2743757  85.1362515 103.1094837  21.4133954  31.0254359
 103.8229465  20.7753253  31.0173678 103.3350277  22.0159388  31.7341685
  20.6437349   7.2997634  79.7260201  20.5488824   6.5108554  80.2597368
  21.4225577   7.1367662  79.1939450 112.6966283  77.1180575  83.9608777
 113.2938048  76.5683573  84.4682622 111.9712779  77.2989195  84.5586968
  41.3821887  29.6062200  60.7943261  42.0959138  30.2167242  60.6096280
  41.5461206  28.8633077  60.2134312  79.3468285  24.0295339   6.1233598
  78.4435415  24.0023160   5.8078170  79.4828129  24.9410391   6.3820136
  58.8989972  96.5653492  40.9558725  59.8024129  96.8526769  41.0882473
  58.6845349  96.0758925  41.7500210  14.0716170  39.4434076  81.2643242
  14.5794962  39.8521941  81.9651735  13.8259791  40.1698690  80.6914831
  60.6789780  38.6679077  41.5553284  60.4035425  38.2533765  42.3729658
  59.9843454  39.2967772  41.3597631  91.3190743 106.5550106  55.7852447
  90.4104039 106.7002028  56.0488141  91.8266103 106.7041987  56.5829814
  18.7200116  99.7166545  13.5207856  19.3946027 100.2043027  13.0481732
  19.1731500  98.9417714  13.8531327  84.6629429   2.6223019  22.0786071
  85.5415249   2.4237439  22.4024820  84.7464085   2.5916943  21.1255431
  99.5256424  29.5497441  36.3479424 100.3642368  29.0882683  36.3527870
  99.3361187  29.7118473  37.2720838  85.0684166   9.8072857  11.6722882
  85.3297424  10.7203293  11.7918444  85.7716370   9.3015778  12.0796907
  26.0482500  51.5954232  89.7175616  25.9233092  50.6464886  89.7296504
  26.6772555  51.7452166  89.0117693  17.9789923  81.0068911  78.0856479
  17.0299624  81.1244886  78.1275261  18.2853697  81.2155836  78.9681495
 105.9036395  79.8819106  80.3990233 106.3360688  79.1380542  79.9795997
 105.2204510  80.1414960  79.7808802  69.9111271  19.5303428  36.6461849
  70.7566833  19.4037259  37.0765734  69.6047497  18.6439574  36.4546514
  59.9878502  16.3653135  11.3421237  59.8372173  17.3104858  11.3283050
  59.1403246  15.9843266  11.1123753  63.9932108  42.4075127  27.8218150
  63.0844545  42.6430607  27.6349497  64.2609406  41.8736935  27.0737624
  87.4214268  54.3494368  42.3256826  87.2086239  54.1221809  41.4205313
  87.3937893  53.5155487  42.7948284  82.0616722  17.8492963   2.6571843
  81.7654514  18.6710095   3.0486807  81.5932751  17.7984107   1.8239719
  49.6779728  39.9958444  24.5401096  49.3659592  40.7143259  23.9899659
  50.4026985  39.6129465  24.0457463  45.3356218  13.8381124   8.9835936
  44.6853638  13.4732270   8.3833796  46.1709976  13.7225342   8.5307974
   1.2279414  87.7732103  64.5076526   1.2411497  87.5696343  63.5724438
   0.3428124  88.0998271  64.6692002  99.8506546  22.7074575  22.2199106
 100.7885361  22.5989771  22.3775649  99.5281792  21.8183804  22.0723295
  79.7655106  43.9413929  30.8689070  79.6394539  44.2067432  31.7799139
  80.5237293  44.4463778  30.5750823  77.0986080  30.3052425  24.7706485
  77.7330303  30.1511073  24.0706635  76.8843031  31.2353969  24.6991181
  70.8400202  26.9698524  14.9712026  70.0228310  26.4734793  14.9259579
  71.4636564  26.3679838  15.3774881  57.1153402  94.4525540   6.6395062
  57.4432897  95.3085805   6.3640088  57.5348043  93.8321710   6.0433459
 104.1743374  32.0252514  13.7202978 104.3193817  31.3256454  13.0833137
 103.3726025  32.4562955  13.4242404  98.4416103  57.3160172  12.7494359
  98.2214451  58.1186533  12.2766447  97.6275158  57.0637274  13.1851351
  73.8584375  22.7738166  24.2797041  73.4776354  23.3641315  23.6295104
  73.1247616  22.5371003  24.8470831  55.7607316  15.4377811  83.0933613
  56.5249871  15.9451406  82.8199894  55.4532193  15.0166385  82.2906745
  71.1375952  33.8427234  32.7799177  70.1894999  33.8296700  32.6488709
  71.3829517  32.9198790  32.8462005 110.4408070  79.6867722  53.0340851
 109.9697968  78.9535778  52.6381004 111.2686726  79.7262590  52.5552166
  29.9016379  87.7836006  83.7201512  29.0265082  88.0146735  83.4087372
  29.8219393  87.7750605  84.6739889   1.4655258  57.9106188  38.7465692
   1.5175773  57.2135496  38.0926466   2.3055984  58.3646011  38.6800838
   7.2426654  61.9422531  11.7048335   7.3888637  61.0411739  11.4168787
   6.6913177  61.8586159  12.4828088   6.6808699  83.9129060  81.9344676
   6.3543127  84.3232101  81.1336923   6.4410113  84.5235508  82.6314682
   9.9428366  84.7516959  77.2534311   9.3265818  84.2472523  77.7844656
  10.2009104  84.1530555  76.5525318  91.3022423  38.0599284  14.7074974
  90.3790855  38.1535172  14.4724059  91.6964626  38.8988423  14.4686604
  22.1723224  47.3120070   5.4325855  22.7697326  48.0597925   5.4446018
  22.4227764  46.7930460   6.1969054   2.0292760   3.4614437  75.9690106
   1.4540959   2.8146760  76.3777769   1.6400815   3.6182897  75.1086831
  95.5835819  35.5998158  34.9848938  96.5337563  35.7055664  35.0318885
  95.2847004  35.7165480  35.8867121  81.8304395  95.9398866  35.2085471
  82.5031232  96.5408707  35.5287862  81.0272550  96.4605475  35.2026677
   0.9610127  95.2793282  76.6428626   0.3855942  95.9131735  76.2146557
   0.7186173  95.3224772  77.5678563  36.0777926  48.2676649   8.5160524
  36.8133378  48.2992458   7.9043251  36.4824247  48.1110954   9.3692768
  89.3788242  17.2418547  14.6130335  89.1075802  17.9748249  14.0603948
  90.2560902  17.4798882  14.9130011  78.8197422  29.0343761  22.7807832
  78.6008787  28.6501169  21.9318557  78.9871454  28.2819343  23.3482695
  41.6690683  11.3334148  89.2249665  41.3679170  12.1797817  88.8945100
  40.8647346  10.8501594  89.4140196  74.4733858  56.7424679   9.7684246
  74.5178604  56.1713409  10.5352807  74.8870134  57.5575876  10.0525463
  19.9593352  91.3636821  88.6035309  20.5968569  90.7800477  88.1922311
  19.2619227  91.4524763  87.9539395 107.9719731  73.6604136  78.2446397
 108.9253327  73.6021607  78.3074034 107.6929185  72.7755361  78.0093634
  94.8573017  38.4793329  24.1620970  94.7791386  39.4088078  23.9471531
  94.9215984  38.4588885  25.1169157   5.8345507  82.1366733  70.3350294
   5.5511854  82.0495337  69.4248975   6.7897795  82.0910733  70.2938855
  87.2204920 102.7080267  86.0102320  87.2688100 103.6266773  86.2747676
  87.6715848 102.6776903  85.1665336  94.6084023  75.8297062  10.5531645
  93.7259960  75.7984018  10.1835632  94.9097061  76.7213202  10.3785968
  48.4275532  41.5677881  13.2340515  48.6400652  42.4771261  13.4442234
  47.4949360  41.5833044  13.0190754 111.2725639   0.9176879  12.9984081
 111.4100552   0.8532667  12.0533264 110.5647373   0.2994821  13.1801569
  71.4377737  45.9974670   7.7570641  71.7798901  45.9168673   6.8667305
  71.6257715  46.9027233   8.0048519  67.8084993  19.5591466  83.2967258
  68.5790109  19.5072286  82.7311719  68.1494760  19.4167488  84.1797245
  65.6104802  16.2985008  65.8805931  65.2271127  15.4906909  66.2222159
  65.7702397  16.8348806  66.6571248 109.4500637  58.7666368  32.8548813
 110.2919579  58.5808468  33.2707167 108.9141178  57.9965591  33.0445576
 110.1304719  91.9139450  66.5223801 109.9757716  92.1500748  65.6077540
 111.0590646  92.0983666  66.6635907  95.9519577  63.8485479   2.0934351
  96.0499191  64.5868969   2.6946640  95.1738930  64.0610170   1.5779680
  97.3661518  35.2806258  42.0832539  96.7748833  34.5327449  42.1687603
  96.8541622  35.9381032  41.6122818  43.3892155  82.1686649   0.7375885
  43.2058191  82.3799992  -0.1777982  43.5463190  81.2244415   0.7385693
  29.5812796  71.8659192  88.0338961  29.2619417  70.9805661  88.2082692
  28.8824938  72.2766238  87.5247187  32.5208567  71.5233796  87.1394891
  32.8838728  71.0278862  87.8736133  31.6103075  71.6849619  87.3865140
  79.1169930  33.8975573  12.1176350  79.2601061  32.9629421  11.9684863
  79.7715044  34.1384530  12.7732408 107.4321651  47.7834034  30.2465367
 107.4215031  48.3129120  29.4492054 107.3454857  46.8819380  29.9365687
  53.2761669   6.3600266  11.9201052  53.3493090   7.2071517  12.3597193
  52.3980522   6.0501748  12.1417761  57.5743722  82.3587418  19.5779121
  56.9503545  81.6372133  19.6569014  58.3368062  81.9701481  19.1490614
  97.9248047  69.6438313  12.8008032  97.4376678  69.9581909  12.0391548
  98.2457066  68.7804890  12.5402355 104.3559456  16.6586626  21.0490346
 103.8673115  16.8493831  21.8497181 103.6834812  16.5681219  20.3738832
   0.3744126  13.9453809  85.3825540   0.5342103  13.9295404  86.3261879
  -0.5301761  14.2466800  85.2978421  97.2463512  26.6067719  20.2709627
  98.0467319  26.5209723  19.7530162  96.8297386  25.7469988  20.2122259
  12.7833746  83.1488054  70.2894748  13.3495234  83.7279480  70.7996691
  13.3889578  82.5883287  69.8043335  95.9192323  12.4959724  75.4523599
  96.8263864  12.2336214  75.6088078  95.6003999  11.8761508  74.7963131
   1.4250658  97.9409807  91.7322238   1.3009928  98.3658426  92.5809475
   1.9411944  97.1592110  91.9288946  85.7457733  36.6896272   0.7888483
  85.2102375  36.0465026   0.3242736  86.3261032  37.0479941   0.1172672
  34.0833281  90.4908293  66.1298097  34.7899340  89.9258798  66.4424813
  33.5600565  90.6740206  66.9101107  64.3239594  36.8506241   0.8582985
  64.7593975  36.3128185   1.5196538  63.7286520  36.2475395   0.4131767
  76.8141890  65.9401846   1.2218117  77.6043320  66.4212608   0.9759206
  76.2686253  66.5878010   1.6681099  92.9552937  28.4446073  11.0226083
  93.8358116  28.4036088  11.3957453  92.3782635  28.1869316  11.7415464
  77.5576210  54.5117855  19.2699373  77.5627756  55.4373312  19.0258658
  77.7175951  54.5120621  20.2136755  10.0131987  73.3179586  82.8254891
   9.0590380  73.2865387  82.8949011  10.2660559  74.0817230  83.3441067
  86.2034607  85.0741100  44.3402481  85.3092861  84.7331333  44.3198490
  86.3379669  85.3393269  45.2500868 108.1781197  47.4061346  19.9402452
 108.8331413  47.3539114  19.2442155 107.3431110  47.4805737  19.4782364
  80.3089809   8.8558304  18.7773871  79.5023918   8.7363142  18.2760262
  80.9921455   8.9488393  18.1134129  88.7639332  81.4168167  12.3933792
  89.2516899  81.5404701  11.5791082  88.0083942  80.8857346  12.1417069
  90.2306652  74.7718859  10.7896054  89.8903751  75.1093483   9.9610245
  91.1412907  75.0659943  10.8120918  18.5739134  81.3204139  91.2940857
  18.5642527  80.9227961  90.4234323  18.3455180  80.6044405  91.8869188
   4.0231036  87.8799432  72.6547551   4.8685072  88.1755322  72.3168981
   3.7018011  87.2672122  71.9932735  91.7124650 106.5608900  90.1520075
  91.0401770 105.9091633  90.3507901  91.3796660 107.3726862  90.5347064
  37.5865362  96.5433376  90.7923785  37.2430514  95.8335465  91.3350100
  37.1262072  96.4513701  89.9581915  87.0487258  96.8498295  73.3056188
  86.5922019  97.5820749  73.7199080  87.5380036  96.4386242  74.0181852
  78.8204241  17.0649588   6.3070732  79.6482468  17.0418215   5.8270633
  78.9554405  16.4718354   7.0461315  61.2648630  26.1737514  40.9459114
  61.8161631  26.7412519  41.4846516  61.1281633  25.3930521  41.4826155
 100.6692600  47.9208517  33.0494761 100.2470589  47.0622253  33.0768037
 100.7866478  48.1004477  32.1166348  98.2147738  46.8676394  85.6080902
  98.2900807  47.8087043  85.4501105  99.0385815  46.5036743  85.2839071
  81.2298012  48.5608339   4.0537333  80.5048752  49.1655731   4.2118791
  81.0474300  47.8139830   4.6239817  20.0093745  67.5355213  86.8310237
  20.8233450  67.9142683  87.1630448  19.3906115  67.6245730  87.5558865
  82.8706360  14.0539277  20.5010462  83.1383228  14.2550385  21.3977790
  83.0376816  13.1162417  20.4058123  94.2269611  25.7882667  11.9507515
  94.3218517  25.1660728  12.6719332  94.4930458  26.6289544  12.3231411
  92.9587650  72.3986673   0.3503600  93.8375092  72.0237923   0.4096350
  92.4045563  71.6678286   0.0765841   3.0588867  12.2502232  30.3030252
   3.7959434  12.7573264  30.6433535   3.1481029  11.3913059  30.7159829
  85.9511852  44.3154669  15.3180850  85.3691196  43.5608053  15.4070437
  86.3509083  44.2091942  14.4548595  48.5266352  72.1694326  17.5076640
  48.5953283  72.3637152  16.5729094  48.3201885  73.0117273  17.9128218
  73.8420248  20.5369925  27.9375720  74.5168304  20.1555490  27.3759937
  74.3106079  21.1754084  28.4752393 105.8802509  38.1889963  17.0682847
 105.1195812  38.6085081  17.4702954 106.3555050  38.9062190  16.6488051
  92.5570202  30.5833173  27.0973849  93.1945324  30.0863838  26.5846753
  92.0588303  29.9170709  27.5708365  76.8859005  39.3039107  31.1343813
  77.3354816  38.4922457  30.8992052  77.5509930  39.9845719  31.0314870
  41.4862250  95.4535270   4.0503582  42.2113942  95.8824373   3.5960433
  40.8015489  95.3731895   3.3862811  14.2736243  95.9717243  84.2052836
  14.6859930  96.8310755  84.2930389  14.8910139  95.4622763  83.6803842
  29.2919157  69.4989472  89.5551759  29.1028021  68.5658901  89.4558269
  30.0307749  69.5301896  90.1629162   6.5597628  77.4858420  70.9016621
   6.1222361  76.7238587  71.2813843   6.2964247  77.4793356  69.9814213
  72.0764351  35.6461143  17.9804826  71.4862919  36.2426734  18.4410012
  72.9520941  35.9863257  18.1640756  95.0607681  62.3599339  20.3420496
  94.8086929  62.4575472  21.2602878  95.8208466  62.9327679  20.2401376
   9.9538757  38.6613321   5.7940251  10.0384380  38.4855080   6.7311311
   9.1139938  38.2711697   5.5519605  31.1851500  98.3156365  81.4465273
  31.2776564  99.1652697  81.8775642  30.2397345  98.1755798  81.3936234
 109.3266964  79.8343420   4.2740312 108.4652424  80.0417805   4.6361050
 109.6546841  80.6701851   3.9423275 104.9138165  52.4554825  16.5225697
 105.6966972  52.6409817  17.0411325 104.5796490  53.3180237  16.2764192
  79.8627233  96.4970458  16.2888181  79.0291738  96.4981437  15.8182490
  79.6248960  96.3095594  17.1968496  50.2914809 102.3684853  76.7028475
  50.0897501 102.9211968  77.4578607  50.4218863 102.9852360  75.9825397
  89.1632843  63.0310011  34.1394281  88.9735031  62.5488758  34.9442673
  89.1942883  63.9482450  34.4113493   2.4618103   8.9440286  17.5377548
   2.0996620   8.1400567  17.1653247   2.7194263   8.7011796  18.4270763
 107.5694942  73.2682180  18.4097791 107.6554394  74.2202425  18.4597456
 107.5515079  72.9811144  19.3227303  21.7582987  84.4150084  85.8185232
  22.0527457  85.1473373  85.2770210  20.8313368  84.3145459  85.6019885
  44.5660780  92.6550024  72.4681247  44.0412901  93.3736032  72.1153629
  45.4257677  93.0434101  72.6303053 102.2562504  63.3509684   9.2728394
 101.6183376  62.6430082   9.1828626 103.0237865  62.9335213   9.6638000
  77.8139210  61.1649847  16.2844408  76.8879414  61.3026857  16.4840090
  77.9265547  61.5296745  15.4066312  49.0302323   3.6594932  86.9777710
  49.2570066   4.5892971  86.9614601  48.6952733   3.5101287  87.8619248
  28.0177879   5.1333158  81.8465591  27.5065469   4.3393438  81.6901112
  28.5642385   5.2240245  81.0659218  45.6613874   6.5952985  89.1608015
  46.3850450   6.4964263  88.5421121  45.1273202   5.8114545  89.0319583
  53.9576100   6.6832654  88.9766574  54.1433000   7.6221197  88.9941320
  53.0254888   6.6195600  89.1848281  38.6436009  47.0934057   0.4592867
  38.0301881  47.4876451   1.0793899  39.4757605  47.0640898   0.9313932
   8.6112739  56.4319754  51.6227341   8.4896614  57.3769474  51.5306997
   8.5816719  56.0982275  50.7260895  88.4513378  45.9617090  30.3097296
  87.8150272  46.4098358  30.8669686  88.4325218  45.0523901  30.6080818
  76.8071938  38.2735538   9.2934185  77.0677948  38.4849834   8.3969724
  77.0073223  37.3422670   9.3876928  78.9118862  37.0855069  30.5914450
  79.5897484  37.3388386  31.2179852  79.3787622  36.9819880  29.7622633
 106.3557529  23.8347268   7.5547147 107.1563435  23.6523771   8.0466878
 106.6002369  23.6965013   6.6396427  80.3669165  84.2697280  45.3631485
  80.9860800  84.9905866  45.4781378  79.5335482  84.6167105  45.6814993
  90.1423264  33.8869381  15.3198123  90.1705647  34.4273353  16.1093724
  89.4112492  34.2408752  14.8133552  34.8075437   1.9798582  71.0635984
  35.0412606   1.1297815  71.4364016  33.9073800   1.8680160  70.7579458
  43.1343795  45.8177042  13.1608963  42.2636844  45.9279490  13.5429406
  43.4113266  46.7058611  12.9356873  99.0956116  23.7945485  26.2953973
  99.9470901  23.5015035  25.9708500  98.9707184  23.3101630  27.1114874
   2.6770736  33.8788819   3.9707541   3.4485485  33.3546185   3.7558189
   2.1318580  33.8359451   3.1851763 107.2717667  22.7472210   2.0553182
 107.8275776  21.9679880   2.0654832 106.8328476  22.7172756   1.2052057
  79.0759277  21.9351244  42.3583221  79.7821760  22.2966170  42.8938246
  78.8801241  22.6241064  41.7233419 102.1794415  87.7299690  11.1230898
 101.3716125  88.0203915  11.5465164 102.6055145  88.5389042  10.8396900
  94.7464752  87.1462822   6.6013193  94.3140793  87.5827122   7.3353440
  94.9920845  87.8581429   6.0104162  84.0935326  36.0700059  22.5437975
  83.7330246  35.8148050  23.3929968  84.5379829  36.9008684  22.7121949
   4.5601131  31.8774033   3.3622998   5.2308990  31.8978453   4.0448385
   5.0521995  31.7973280   2.5451893 107.4077225  72.0745039  37.4185658
 106.7959118  72.8106451  37.4153399 108.1314659  72.3621368  36.8620658
   4.4907047  38.6780238   8.8058126   5.4242088  38.5055709   8.9285398
   4.2123176  39.0845251   9.6264768  93.2193089  67.4946451  13.3762372
  93.8163376  68.0101967  13.9184499  92.3492241  67.6941633  13.7217546
 101.4664361  81.9659203  88.5938588 102.4040553  81.7744582  88.6148745
 101.3219639  82.3614877  87.7342737  92.0752621  50.3137398   7.8415447
  92.6455593  50.1843500   7.0837545  92.6474762  50.1812363   8.5973501
  98.1408310  62.7079105   4.8883644  97.2541142  62.3559046   4.8105878
  98.1045818  63.2813740   5.6539083 104.2817211  55.1700497  39.3710470
 104.6438694  55.2697515  38.4906292 103.3928013  55.5189562  39.3053102
 101.3685894  36.4610052  31.5288806 102.0147419  35.7922983  31.7559218
 100.6335735  36.2939382  32.1188617  95.8535099  77.3668671   8.0717337
  96.0891628  76.4774847   8.3357471  95.8297920  77.8615189   8.8908708
  64.2551947  82.9328728  46.4964390  64.6557999  83.3114243  47.2790289
  64.7133589  82.1018791  46.3709259  96.9987106  77.8346395  31.3886690
  96.2022018  77.5279140  30.9553885  96.6891670  78.4591436  32.0447278
  69.8806237   3.2543771  70.2921927  70.5550050   3.2166545  69.6139539
  69.9622678   4.1332548  70.6625188  26.6665267  25.4081647  77.1021796
  25.9733247  25.8408563  76.6037083  27.0939016  26.1169450  77.5830281
  93.4322643  56.6820765  14.5012879  93.7985420  56.7917490  15.3788102
  93.9728642  56.0020399  14.0993738   9.7970389  98.7280291  89.8548931
  10.0329493  99.5171755  90.3425651   9.5330141  99.0492409  88.9927173
  73.7929010  52.7519910  86.4874304  73.1497811  53.2953279  86.0319966
  73.2714032  52.2056692  87.0754713 112.1187115  57.2763824  21.4724803
 112.1188164  58.1076622  20.9979153 113.0181599  57.1789503  21.7850995
  97.1262646  48.1906509   9.1943377  97.4541092  48.4222412  10.0633132
  96.9888973  49.0315771   8.7582183  36.0761164  99.5486324  87.6770088
  36.9541643  99.9284809  87.7083508  35.8958624  99.2872494  88.5800132
  98.8076782  67.3870564   2.8229347  97.9894066  66.9502211   3.0592281
  99.3377972  66.7001963   2.4186715  66.5047407  76.7969084  33.2262635
  66.9488239  77.4945688  33.7082267  66.4052248  76.0906410  33.8646340
  87.2444916  65.1093721   6.1464274  87.0735359  65.3576803   7.0549160
  86.7248631  65.7239962   5.6283045 102.1064854  84.0077496  12.9158950
 102.4753571  83.9293575  12.0361102 101.9807911  83.1037331  13.2043266
  88.2385205  44.1071527  89.3293137  88.9053010  43.5729520  89.7608963
  87.4083947  43.7805955  89.6764204  85.8036709  51.3851643  26.6304231
  86.6864967  51.2629414  26.2812567  85.3246689  50.6057787  26.3487339
  66.0562371  12.7415006  79.9041593  65.8188390  13.6479299  80.0997579
  66.0614156  12.6962488  78.9480436   5.0697471  65.4676294  20.8946085
   5.8239032  64.9129057  20.6951952   4.3970539  65.1898956  20.2728486
  85.8079529  58.7399769  11.2760460  86.0310078  59.4961834  10.7332432
  85.7962799  58.0024052  10.6660640 111.8349171  51.4837551  51.8498945
 111.2193680  52.1108818  51.4703703 112.6535416  51.6359425  51.3777351
 103.6000919  44.4822836   9.4391215 102.7105141  44.7853231   9.2573208
 103.5160637  43.5330296   9.5290327  80.3887558  43.2944489  14.2000425
  79.6864748  43.6903286  13.6839867  79.9754047  42.5483561  14.6344638
  96.3152218  36.5595913  29.3809581  95.5906487  37.1754503  29.4902134
  95.9810829  35.7325816  29.7282887 111.4193058 101.4889240  28.5745716
 111.4600277 102.3356247  29.0191746 110.6379986 101.0676479  28.9327717
  35.5178498  37.6462095  89.0832424  35.8760595  37.3829286  89.9309433
  35.8459615  36.9886415  88.4699095 108.7762070  67.3674488  19.2082822
 107.8835392  67.6025867  19.4614422 109.3132401  68.0961180  19.5195186
  12.4000548 105.6634205  84.7867358  13.0588816 105.9962719  84.1773224
  12.2327994 106.3945597  85.3814590  11.0348941  50.2564096  22.8136563
  11.5523960  49.6724224  23.3680749  10.1335289  50.1325989  23.1110668
   1.1106731  64.3399811  43.0573273   1.2609626  63.4313059  43.3180046
   1.2750103  64.3489552  42.1143818  88.1730175  79.4275379  18.0315578
  87.9005527  79.7301817  18.8978171  89.0903759  79.6920872  17.9630053
 104.8529720  46.9998884  15.2258062 104.0054607  47.4392080  15.2962089
 105.3546429  47.5432205  14.6180630   0.5390881 106.3341492  68.1810558
   0.0838326 106.5398615  68.9975441   0.3509472 107.0774811  67.6080835
  49.9877023   4.0598075  81.1325348  49.9970769   3.1927030  81.5378428
  49.0697526   4.2080848  80.9053338 108.5540104  96.5132427  22.2864294
 107.6908588  96.8595886  22.0600200 108.5239697  95.5968189  22.0116568
  88.0678558  52.3935366  35.4947329  88.9521980  52.7246141  35.6514335
  87.5554180  52.7197027  36.2345004  94.8814964  17.2492874  42.9632711
  94.2302418  17.3071980  42.2641706  95.0621700  16.3128817  43.0453300
  97.6291561  68.9669847  21.0296607  97.4452209  68.7089825  20.1264238
  98.5815430  69.0564013  21.0639954   7.2310592  64.3781137  30.0453925
   7.5206138  65.2785110  30.1926041   6.9109108  64.3739319  29.1433311
  97.0900440  56.9456339  34.1107249  96.5030479  57.2082758  33.4017277
  97.8523636  57.5164366  34.0143847  93.9693928  30.2002025  20.9020972
  93.7546730  30.4932022  20.0165033  94.8709583  29.8850632  20.8381224
  87.8549303  53.8530905   0.5725109  88.2639124  54.1704351  -0.2326286
  86.9437398  53.6888201   0.3296578  65.4284312  13.6685068   7.6737892
  65.6330653  14.3322498   8.3324253  66.0728957  13.8121015   6.9807636
  65.3321697  17.5795490  19.4601833  65.8372225  18.3696539  19.6522438
  64.5723559  17.6341850  20.0397789  62.3535563  66.3173563   6.1162388
  62.2722508  65.7185537   5.3739082  61.4708473  66.6661150   6.2404358
  52.3516918  10.5395698  62.7919531  52.8193034  10.2554798  63.5773611
  51.4340342  10.5803775  63.0611610  93.1845520  58.0726528  90.8411026
  94.0471886  58.3687258  91.1316776  93.1849526  58.2246590  89.8960495
 107.3221855  87.5272274  85.4782009 107.8733425  87.4194527  84.7030640
 107.1365826  88.4656715  85.5115128  33.5477042  79.3690157  63.5138226
  32.8422856  78.9742661  63.0011988  33.9285326  80.0259972  62.9310846
  66.3461085  42.2527582   1.8527138  66.5115763  41.7663652   1.0450756
  66.6431071  41.6677839   2.5497257  12.4011091  52.4750120  22.8435242
  12.0495895  52.7776987  23.6808121  11.8397239  51.7389090  22.6001274
   6.0174531  92.3899364  76.9415474   6.8375796  91.9080639  76.8346596
   6.1556447  92.9279900  77.7210522  33.2246280  82.9481316  91.6601658
  33.0890250  82.8779221  90.7152271  32.9812789  83.8496208  91.8707180
 109.5475809  94.3111038  82.4211502 110.4707368  94.4222260  82.1938515
 109.4207860  93.3628082  82.4511909 113.1960747  65.3861332  87.6834774
 112.4404306  64.9170637  87.3296356 113.3586037  66.0882664  87.0535374
  49.7924353  10.6923515   7.2789299  49.2819835  11.2450296   6.6871369
  49.3307187  10.7470114   8.1156265  72.6032998  50.5445368  23.9675152
  72.9634370  50.4408152  23.0867302  73.3293428  50.8952219  24.4833767
   2.8815538  92.3577118  74.2094994   2.1787310  92.9936790  74.3430090
   2.9051170  92.2221184  73.2622433  19.6353391  30.4202158   9.8366749
  19.9245981  30.2474291  10.7326138  19.7477296  29.5846826   9.3833649
   0.3273258  78.4250450  62.4043465  -0.5353549  78.8178825  62.2713423
   0.8271173  79.0962934  62.8689528  54.4259859  15.3101444  70.0156260
  54.8659492  15.2948093  70.8655834  54.3669225  16.2392711  69.7932243
   7.7754271  91.4577675  52.9404688   7.5250179  91.3401890  53.8568211
   8.1273478  92.3470306  52.9005575  20.9783271   4.5552761   9.2608845
  21.2936452   5.0544865   8.5074913  21.3584331   3.6841852   9.1470730
  89.5761706  52.9094393   4.8085987  90.0943078  53.6915953   4.9983322
  89.7748734  52.7064306   3.8945210 105.5563305  60.8571434  60.4019928
 104.9594431  60.1581573  60.1348400 106.2010555  60.4215145  60.9594774
  88.8941956  10.1158714  88.0807972  88.1851149  10.7349395  88.2545376
  88.7193585   9.3804740  88.6680317  36.0703542  13.5085964  88.6746216
  35.4108001  13.9359188  89.2210770  36.5722720  12.9674148  89.2840672
  62.1797086   9.4071323   3.5224068  61.6464652   9.5673162   4.3010151
  62.7690043  10.1600391   3.4766590  27.3093867  75.8601809  66.1113691
  27.7222419  75.1972580  66.6648293  27.5225210  75.5924225  65.2174377
  19.2340589  89.4489479  69.2542458  18.8570118  88.5853004  69.4220781
  19.7534585  89.3330383  68.4586191 102.4126531  65.3573782   1.1314404
 102.9970075  64.8141939   1.6603195 102.9975630  65.9543116   0.6647789
  11.8464983  77.1034479  56.6350603  11.1919653  77.1289349  57.3330355
  12.3105049  77.9371881  56.7112732  91.7269586  86.0613537  87.8453255
  91.9348095  85.5822563  88.6474991  90.8611296  85.7409477  87.5925064
  35.0864339 100.5282784  70.5268288  35.4958081  99.6702671  70.4151964
  34.5408154 100.4335785  71.3075733  11.1286092  89.3038654  74.3215752
  10.7767498  89.1845989  73.4394169  10.8110213  90.1655197  74.5916367
  89.7078489 102.0677471  46.3218975  90.3638886 102.5262260  45.7968760
  90.1153611 101.2281513  46.5345955  46.6549958  20.8700179  66.4459467
  46.9124831  20.7735252  65.5290937  45.8432115  21.3762473  66.4147377
 101.6084601  28.7464220   7.1216309 101.9210531  28.3581144   7.9387772
 102.0771267  29.5785410   7.0572006  11.1803532  70.2330780  68.9068985
  10.8713806  70.5217743  68.0481672  11.9326496  69.6732140  68.7149811
   1.1275953  93.5468674  60.8762407   1.7082417  94.3039322  60.9532881
   1.6367590  92.8175354  61.2298727  88.1615903   0.6619865  13.1795323
  88.2878389   0.7622988  14.1230499  87.4328853   1.2468750  12.9718697
  97.4074374  85.1247406  82.9659176  96.7580114  84.6020603  82.4955082
  97.6093315  84.6095753  83.7469864  40.5494261  30.1411819  67.3197365
  40.2547407  29.2824531  67.6230145  41.0454082  30.4981565  68.0564880
   7.7918375  54.2909718  76.4124632   8.5784072  54.3754148  76.9513559
   7.2059357  53.7376022  76.9289255  38.9786147 100.8708603   8.4446442
  38.6835670 100.5719073   9.3047630  38.1945419 101.2386401   8.0369675
  12.8166711  95.1506138  76.1185312  11.9477856  94.7632694  76.2245226
  12.8574586  95.3982258  75.1948118  33.9930487  97.0020676  84.0915585
  34.7721744  97.5455093  84.2092991  33.3662915  97.3401928  84.7311497
   0.5195043  70.0425005  67.7700329   0.9722188  69.2739296  68.1172848
   1.1841193  70.4993248  67.2544479   6.3400567  69.3916035  69.3874550
   6.9975686  69.0690041  68.7711430   6.2975729  70.3332996  69.2212009
  45.2885103  86.8789577  92.5318241  44.5752287  86.9044876  91.8940067
  45.8896923  87.5669956  92.2465038  46.5572918  22.2412204  85.7412529
  45.6140602  22.3408985  85.6123734  46.7003138  21.2947654  85.7413483
  10.5841553  87.0554161  60.4039907  10.5778539  87.7545452  59.7502184
  10.1566231  86.3173771  59.9695444  73.6589719 101.2232907  11.4194119
  72.8253270 101.6889269  11.3526737  73.4833504 100.3621562  11.0401547
  97.5368239   4.6374208   6.7361176  96.5882303   4.5366365   6.8151486
  97.6722004   5.5823357   6.6651070 101.6438256  50.5005169  73.3469343
 102.2865306  50.2394629  72.6873779 102.1149336  51.1140013  73.9107800
   2.8736871 101.8680000  74.6784878   3.4029078 102.4236679  74.1063070
   2.5262725 101.1897945  74.0992022  22.2602094   8.4165573  56.7360497
  22.4779833   7.7469444  56.0876417  21.8640972   7.9300594  57.4589920
  83.5951527  13.9588720  13.5770332  83.4026922  13.8939983  12.6416218
  83.1518747  14.7594339  13.8578045 100.2456973  64.4208717  71.8173313
 100.4675506  63.5005188  71.6760206 100.8753489  64.9039268  71.2821388
 108.1822722  51.2364912  28.5226035 107.6030837  51.7366028  29.0976357
 107.5901948  50.7771206  27.9270744  61.7072548  17.1593029   3.2225525
  61.3265909  18.0054171   2.9871380  62.0083393  17.2745592   4.1238224
  59.8924805  22.2683048  83.5588169  59.6138335  21.9401550  84.4137478
  59.7500373  23.2136154  83.6070633   3.4989637  95.1917934  76.0287380
   3.7162086  94.2622948  76.0999298   2.5960642  95.2513218  76.3409281
 101.5292202  95.9963512  74.1749811 102.3269103  96.2601280  73.7163496
 101.0589991  95.4516792  73.5437489   3.0735448  51.5339930  22.0641625
   2.5041011  51.3601953  21.3146507   2.4784997  51.5740091  22.8128540
  87.8647293  24.2761166   7.0860397  88.6518909  24.3626911   7.6237404
  87.5464262  23.3919222   7.2680103  88.8018085  61.5078718   6.2299931
  89.0285613  60.8034975   6.8371880  87.9788734  61.8604166   6.5687096
  96.1369778  59.8705656   4.8750317  96.3440563  59.4349939   4.0482151
  95.7287099  60.6963617   4.6150219  77.5528821  55.0994379  11.3635361
  78.3824898  54.9651510  10.9053337  77.5692269  56.0205061  11.6235268
 103.2511522  50.9593470   7.6588356 102.4094273  50.6346971   7.9787266
 103.0297424  51.4764387   6.8843472  46.7971636   3.7595271  68.3376122
  46.8079711   4.7122287  68.4296370  46.0872907   3.5866737  67.7191973
  35.5474544  81.1237621  54.0472174  35.8216476  80.4866409  53.3875751
  35.7521486  80.7057190  54.8836231  19.4367123  30.2500343  87.1298409
  19.4356359  29.7307872  87.9339695  20.0004388  30.9977340  87.3283005
 111.9683649  99.3567181  66.4736080 112.4791598  98.6241150  66.8180227
 112.2338446 100.1056576  67.0073032  13.7707388  95.5342865  68.5101461
  13.1730688  95.4290581  69.2503834  14.4149649  96.1748314  68.8116407
  62.6584173   7.9469585  69.3685579  62.3568774   8.5863971  68.7232447
  63.2891632   8.4272193  69.9049759  78.0419732  25.6903266  85.7660675
  78.4206630  26.5688514  85.7980824  77.3414851  25.7549667  85.1169395
  66.7660547  12.4472331  56.1555529  67.0579553  13.0573368  55.4782104
  66.4663268  11.6776466  55.6716728   2.9163051 101.6881752  62.7190828
   2.3022449 101.6363811  63.4515285   3.5413253 102.3653507  62.9779530
 108.6787389  67.8619719  60.0093603 108.9179896  66.9368935  60.0661421
 107.7227609  67.8595924  59.9610710   5.8550817  84.8776340  79.3048334
   6.6057652  84.2840195  79.2866230   5.7236880  85.1257610  78.3897352
  11.6579510   3.2487678  84.1397285  11.6225959   2.6363754  84.8745346
  11.7551089   2.6912307  83.3677483  64.6020903  48.2015497   7.1792328
  65.1448156  47.4341280   7.3601734  64.4576194  48.6004335   8.0372822
 102.8880762  64.4907904  57.2438908 103.4069364  64.7023773  56.4678431
 102.8331159  65.3151131  57.7273178  85.4843207  29.0354807  14.9216473
  86.3741864  29.3534357  15.0742161  85.3342714  28.3989794  15.6206238
 109.2402314  65.0294113  60.2403021 108.5788016  65.2048111  60.9096146
 108.9120723  64.2598915  59.7751331  69.7167434  43.8419706   0.6163132
  69.5400418  44.5857603   0.0403130  70.1879551  43.2180578   0.0641167
  55.9301662 103.1082439  83.1404400  56.7511654 103.0666256  82.6500702
  55.2998924 103.4768009  82.5214481 106.9666030  69.3074114   5.9782898
 107.2201969  69.4429380   6.8912804 107.5877692  69.8350603   5.4763233
  44.5918507   5.9117984  82.5039864  44.5967931   5.9488773  81.5475178
  44.9216653   6.7674064  82.7785492  57.9313816  59.4757158  20.7270157
  58.0602028  59.7869665  19.8310482  58.6495258  59.8690397  21.2227928
 104.6002476  55.2607012  75.5968285 104.7217558  55.1386499  76.5384054
 103.8172607  55.8066225  75.5251503 109.0143178  99.4922638  67.9499292
 109.1799612 100.0539207  68.7071180 109.8512806  99.4620705  67.4864531
  44.9322099  10.8757114  72.6681757  44.5814294  10.9543418  73.5553074
  45.4777981  10.0896835  72.6951456 111.1716925  85.6663227  88.0698681
 110.3609382  85.8966255  88.5235977 111.8366460  85.6554222  88.7583065
 107.3865412  77.6429319  80.0345135 108.1731062  78.0852318  80.3537560
 107.6717041  77.1904469  79.2406845   8.0026907  87.4020958  76.5329361
   8.5199302  86.5975189  76.5696526   7.6456970  87.4170208  75.6449270
  34.8442195  29.3590068  54.7413826  34.7389821  28.4723853  55.0864220
  35.3560457  29.8164462  55.4084826  29.4398952 103.5822868  65.9229040
  29.2676973 104.5050812  66.1100912  28.6144495 103.1397343  66.1204433
 102.0427869 106.8097591  68.9397717 101.9058512 106.3597870  68.1060982
 102.4999975 106.1696529  69.4851685  84.8360015   3.1863212  87.4674416
  85.4431105   2.4500083  87.5415802  84.0361501   2.8813075  87.8957462
  38.1358480  93.1759167  78.7650394  37.3781490  93.6017418  79.1660357
  38.7463593  93.8913631  78.5871553  88.4418438  95.9217358  79.4902420
  89.3588828  95.6882858  79.6343756  88.4522913  96.4534569  78.6943769
  65.9595800   8.7796592  89.3096447  66.7836190   9.0097427  88.8803959
  66.2180878   8.4891414  90.1842880  69.5675124   4.9666578  45.0506508
  68.6110552   4.9343998  45.0311291  69.7711308   5.6499702  45.6892883
  41.4808083  97.1715736  88.6691570  41.1741352  97.5763607  89.4805241
  41.6782475  96.2671089  88.9124584  30.9873767  16.7399406  86.1588287
  30.1471467  16.3530254  85.9127617  31.5200109  15.9963512  86.4409828
  21.8317461  73.0429411  80.2896404  21.3382864  73.7588978  79.8894691
  22.1011496  73.3848906  81.1421204  85.2782519  73.0359346  35.6869518
  85.3574439  72.8499300  34.7513497  84.4720854  73.5464842  35.7622540
   6.6593269  79.7626860   9.0918839   7.3575738  79.9232561   8.4571373
   6.1445287  79.0532381   8.7073052   8.0750954  83.8484764  59.3955421
   7.3635066  83.5868263  59.9798441   8.1658000  84.7910023  59.5357037
  12.8654722  40.6098635  16.0555374  11.9382242  40.5465872  16.2845242
  13.3212331  40.1858980  16.7827046  99.9014841  82.4565125  74.8081493
  99.0087174  82.1237373  74.7161388 100.1860927  82.6300049  73.9108610
   2.9418921  99.8945236  76.4888668   1.9945803  99.7626209  76.4509916
   3.1110525 100.5977917  75.8619452 107.0217182  72.3234922   0.8498490
 107.8634216  71.8893225   0.9886563 106.3724710  71.6917021   1.1589539
  14.4250238 100.4597378  71.0994339  13.5825455 100.8439922  70.8569241
  14.2382157  99.9517918  71.8889380  13.4235990  90.3171635  60.2082205
  14.0016651  89.9543571  60.8793688  13.2444203  89.5811462  59.6230745
  23.8773680  67.4200583  76.4069700  24.1344714  67.9229879  75.6341887
  24.2455077  67.9079437  77.1436357 109.1560628  33.9452822  23.3898556
 109.1581823  33.6695272  22.4732411 108.2302143  33.9643938  23.6320793
  96.2726404  23.1466801   6.3001644  97.1894290  22.9780228   6.5176212
  95.8352520  22.3065359   6.4382946   6.6387832 100.8313847  64.4036961
   7.3153895 100.2089024  64.1373301   7.0148814 101.6904926  64.2120647
  66.3452841  33.5086917  73.7463713  67.0874954  32.9651737  74.0108299
  65.6430317  32.8837585  73.5659885  76.7385746   1.3595294  91.0259819
  77.6877309   1.3636207  90.9022331  76.3812686   1.3567542  90.1379776
  30.6853008 105.1586819  55.7183027  30.5362797 105.8183479  56.3956976
  30.8122087 105.6642246  54.9154615   0.0471698  79.3444586  67.6582670
   0.3758853  79.8004770  68.4330082  -0.3314491  80.0362587  67.1157885
 104.8419194  86.7112732  56.9706726 104.1318004  86.9983196  57.5447512
 105.2573208  87.5229263  56.6793156  98.9451288  90.0759888  71.0819769
  98.1662212  89.9250031  70.5464983  98.7105487  90.8153057  71.6428852
  97.5991581  29.8570180  59.6371555  97.6252256  29.5295405  58.7380981
  98.4700631  29.6677542  59.9863482 107.6912807  89.7537231  87.5684738
 108.5409437  89.9394226  87.9682446 107.7956174  90.0127697  86.6529179
 101.8823014  55.6071281  80.2773285 102.5401424  55.9171486  80.8997154
 101.8789934  54.6561432  80.3861618   6.8198621  93.3028793  40.5470371
   7.1099406  93.4519863  41.4469576   6.3134140  94.0844727  40.3260183
  14.1504800  66.9864368  31.9598126  14.8249090  67.3812914  32.5125027
  13.9911222  66.1282063  32.3526001  29.9763346  40.2535772  72.7461195
  29.1350722  40.2870178  72.2907114  29.8925352  39.5157766  73.3501530
  92.1064137  64.6670008  54.0803528  91.8699287  63.8807726  54.5724440
  92.8444789  65.0388575  54.5632792  27.3631740  32.0254374  54.9652672
  28.0675030  32.6723862  55.0053883  26.5657139  32.5291491  55.1282501
  98.0578171  59.5735264  58.8848591  97.9888569  58.6921597  59.2518282
  97.6153158  59.5156908  58.0380535  48.8998819  80.1997764   0.3759110
  49.6217633  80.2479131  -0.2508343  48.7052871  79.2651732   0.4457962
 102.4186419  24.3624115  90.8081245 102.3638736  25.3023267  90.6355286
 103.3565937  24.1716027  90.7996941  39.1867113  69.5604515  65.1873970
  39.0959048  69.5767641  64.2346573  38.7836862  68.7336254  65.4522848
 104.7529064  81.5983105  51.6040039 103.9972673  81.0135174  51.5469265
 104.5820413  82.2750568  50.9489870  18.8870955  80.5099487  65.9917355
  18.1580782  80.3173447  65.4021025  19.0342402  81.4504337  65.8914137
  27.9142690  65.3049183  79.1051388  28.5586452  65.9618902  79.3685770
  27.3778367  65.1689291  79.8861504 111.2216090  68.6876440  67.0000792
 111.9310531  69.3055820  67.1763611 111.3257126  68.4607315  66.0760069
  21.5302300  42.9735231  80.5893803  21.4776468  43.4465170  79.7588778
  21.9504118  42.1430349  80.3658485  76.7581416   9.4138081  23.5952294
  77.2188945   9.2285139  24.4135201  77.4294438   9.3298942  22.9180729
  97.9641150  40.7161999  44.5420742  98.0929325  41.5467358  44.0839815
  98.6956595  40.1690483  44.2562485  94.9136029  72.9500675  47.2172022
  95.0627159  72.7311039  46.2973881  95.7051502  73.4178495  47.4834108
  16.8241203  84.7183704  82.7759075  16.4935696  85.4144859  83.3436966
  17.4490738  84.2408180  83.3214474  14.8110914  62.3554945  69.0492392
  14.3999922  61.8376493  68.3570910  14.3299949  63.1830025  69.0470934
  48.6361123  91.0373433   3.5815632  48.7576545  90.0896938   3.5231030
  49.5249463  91.3918264   3.6049378 109.6280630  54.0031910  80.8390903
 110.0448532  53.4951925  80.1430607 110.3324349  54.5449877  81.1948299
 100.9552668  66.3121653  88.4313965 100.7251404  66.9772720  89.0801716
 101.3339590  66.8071556  87.7048874  23.2496667  34.5082903  64.1053247
  23.0377841  33.6403179  63.7618685  23.0627799  34.4473529  65.0421238
  27.4311209  80.8666325  46.4957285  26.6154456  81.2410355  46.8284893
  27.7679610  81.5266609  45.8898163  18.8707614  89.0347576  65.3749752
  19.4652736  89.6621227  65.7863092  17.9959095  89.3460655  65.6072474
 111.8856026  82.2037792  60.7742500 112.7189330  81.7379379  60.7050610
 111.3053301  81.7485046  60.1641321  77.1527036  49.4145662   2.9442036
  77.4940607  49.3854219   3.8379967  77.6938208  48.7903673   2.4606812
  22.3230314  74.8687458  57.0425081  22.1942925  74.2003441  57.7154875
  23.2723618  74.9144745  56.9288683  97.5534545  17.8365159  85.6873417
  98.5085796  17.8977871  85.6727028  97.2541378  18.6790252  85.3455448
  14.2085648  45.7806015  66.5452003  14.2186189  45.3809261  65.6754923
  15.0116622  46.3003159  66.5792561  16.2716329  72.9534483  82.3997021
  15.4517198  72.4650145  82.4732685  16.5077841  72.8870678  81.4744759
  94.7281299  88.3246613   9.1710621  94.1305052  89.0699005   9.2318130
  95.5885874  88.7187386   9.0277058 103.8039897  68.2892609  89.1118145
 104.1904651  67.6381588  89.6974182 103.2591091  68.8311958  89.6824646
  39.1020513  50.0977802  87.5932884  38.2985306  49.6153450  87.3987579
  38.9376187  50.5036640  88.4444332  10.4713941  59.1969442  32.9755402
  11.3219178  59.5726681  33.2028580  10.6226182  58.2518435  32.9632831
  75.9583233  42.9262590  87.5692463  76.5336989  43.3535719  88.2037354
  75.0824164  43.2443190  87.7880001 108.9339344  29.3527722  36.8005705
 109.2036764  30.2647781  36.9088101 108.8576241  29.0179229  37.6940370
  22.5966787  92.9490566  63.5144758  23.3440280  93.5305119  63.3744383
  22.1550703  92.9179764  62.6658010   6.9397390  70.7295609  77.7695465
   7.1534449  69.8664141  77.4152327   7.5546306  70.8504009  78.4931087
  83.8090347  74.0533400  90.8102417  83.2361363  74.7794819  90.5637836
  84.6813486  74.3308878  90.5304718  48.9753784 106.3772995   5.5169785
  49.8457278 106.0179265   5.6889450  48.7202931 105.9955485   4.6770775
  96.0010396  37.6232886  74.9250984  96.7168830  37.4464798  74.3147421
  96.4187334  37.6383734  75.7862234   8.3013481  55.8088398  57.9223871
   9.1325980  55.3683758  57.7456188   8.1183249  56.3043022  57.1241093
  23.1699252  96.1826324  75.9503937  22.7699447  95.3152943  76.0134506
  22.4338365  96.7911053  76.0149384  62.1716905   8.3080196  45.4505396
  61.2234021   8.3063793  45.3202391  62.3387314   9.0846347  45.9845734
  19.3046367  66.2403250  60.1321507  20.2402234  66.0591936  60.2221489
  18.9363980  65.4295444  59.7810555  65.0935531  15.1651096  61.4170170
  65.6664754  14.3990039  61.3842487  64.8555256  15.2468585  62.3405361
  21.3415527  78.0253124  72.8700542  22.0723009  78.6233044  73.0270386
  20.9926844  78.2915640  72.0193863 102.5814567  32.8004622  79.4917536
 103.5143952  32.5923920  79.4411325 102.3631166  33.1349564  78.6218882
  19.3564630  61.7047644  80.7804680  19.9627256  62.3959637  81.0467815
  18.6902165  62.1568871  80.2628422  33.2919216  57.9648256  74.6566820
  34.0938473  57.5402546  74.9614573  32.9456162  58.4070778  75.4317427
  21.1017919  70.4716539  76.1651564  21.2439013  69.9946594  75.3475332
  21.9651604  70.5031013  76.5772676   3.7702826  94.4822407  48.0688620
   3.5800466  95.0033092  47.2887802   3.4689459  93.6010551  47.8476429
  93.3217098   9.9816925   2.4355137  93.7023701   9.1665918   2.1085083
  93.4154989  10.5981237   1.7092621  97.8826366  56.9379711  81.4880180
  97.9465745  55.9905481  81.6085815  97.4457966  57.0429230  80.6428051
   8.7442631  85.1307297  74.1165400   8.9367664  84.2717266  74.4924164
   8.0910039  84.9549103  73.4393597  20.0011040  74.7825224  14.7170078
  20.2401245  75.5044277  14.1356671  20.8036853  74.5894296  15.2015793
  85.1232813  74.7225189  52.7897978  84.6997450  74.1150761  53.3963108
  86.0586117  74.6272707  52.9695606  34.1415114  83.7639506   2.6099121
  33.5893286  84.4299538   3.0195057  33.5366619  83.0574400   2.3835671
   8.6671770  85.4928207  66.7171431   8.6458331  85.6192493  67.6657152
   9.1257417  84.6613026  66.5966034 107.4849640  59.6314859  62.3545599
 107.2782378  58.8555193  61.8336248 106.8263219  59.6361303  63.0491114
 108.3242615  48.5135508  62.6700449 108.0977391  48.5154533  63.6000490
 109.0782522  49.0997458  62.6059771  17.7122104  82.8867340  87.6535320
  17.2840738  82.0749664  87.3815727  17.3764861  83.5487080  87.0491219
  30.3641272  63.5569382  53.3087444  30.2075315  62.6419878  53.5423708
  30.0413084  63.6334991  52.4108839  86.4229916  51.6298056  71.2541580
  86.9952105  51.1862087  71.8802738  85.5572842  51.2533474  71.4124632
   4.7152907   8.9673626  76.7414331   5.2976573   8.3137172  76.3543558
   3.9006680   8.4933466  76.9085550  19.3396461  36.5980077  82.7219868
  19.0906644  37.1682739  83.4493351  20.2967453  36.5961647  82.7358627
  92.1034788  58.9603138  59.3458176  92.4847172  58.8013792  60.2093124
  91.7487381  58.1117153  59.0807390  15.6280172  45.8585072  48.7188482
  16.4946234  46.2351179  48.8717794  15.0335085  46.6083431  48.7420464
  98.2297943  90.4036808  46.5981960  98.6765979  90.0394344  47.3623419
  97.9602085  89.6380806  46.0908508  89.3688653  92.1366787  53.6160851
  88.8603638  91.8104076  54.3585110  90.2130531  92.3833466  53.9938879
  98.0362724 102.6214218  48.5233879  97.4312876 103.3502769  48.6612034
  98.6628328 102.9489517  47.8781176  17.8259456  47.0979452  49.5738173
  18.2141328  47.9613018  49.4318295  17.2994328  47.1995306  50.3667212
 110.7734458  43.5731792  14.0435612 110.5261274  42.9198027  13.3892155
 111.5636910  43.9803600  13.6886680  17.2155273  70.2582598  71.6410208
  17.8788829  70.9442472  71.7159414  16.3928509  70.6956244  71.8604422
  19.0981960  42.6531982  52.7012348  19.8095739  43.2704878  52.5305748
  18.5063159  43.1257200  53.2865810  44.0665222  21.5298652  64.2435694
  44.9064333  21.3694381  63.8134050  43.7642831  22.3606395  63.8765621
   9.9428785  90.4301834  61.6644335   9.3082267  89.7372913  61.4818430
  10.7924497  90.0338554  61.4710855  49.3353631  60.4172880  12.5187218
  49.7815611  60.8775026  11.8078434  48.5591079  60.0368578  12.1076977
  19.1576087 104.6154976  46.7280293  19.7174132 104.3249512  47.4480534
  19.1751361 103.8904095  46.1033964  38.9770055  42.3304892  72.8815603
  38.8825417  42.1497917  71.9463301  39.9148059  42.4785566  73.0033684
  81.3175248  70.1714563  39.5993876  81.1434625  70.6326914  40.4198742
  80.4562782  70.0703573  39.1940904   0.9602766  76.6725969  55.5226326
   0.3381364  76.3136816  56.1553669   1.3771011  75.9035778  55.1339197
  84.2509077 103.7479115  68.0420971  83.4313773 104.1981411  68.2467937
  84.8416780 103.9897823  68.7553453  11.7681170  79.3973541  75.6330299
  11.2121451  78.7237597  75.2413654  12.4621809  79.5391464  74.9892855
  76.9596718  71.9547033  35.0872803  76.8331741  71.8214226  36.0266781
  76.3234948  71.3705206  34.6746778   8.8912261  97.5020313  79.9127960
   9.6288532  98.0027962  80.2611923   9.1871870  97.2075081  79.0514660
 103.6996548  83.0652237  76.7259216 103.6087309  82.6311874  75.8776426
 102.8538988  82.9333210  77.1543264   9.9715775  61.8266392  58.1707001
   9.5503247  60.9677792  58.1369162   9.9978173  62.1165752  57.2588444
  22.9068255  76.7640305  88.8277435  22.3886204  77.5677633  88.7863636
  23.7275863  77.0293331  89.2427063  34.4144964  55.0813484  65.5927372
  33.8108921  55.3959656  64.9197531  34.9248505  54.3989944  65.1566648
   3.4432465  71.7694139  59.4697285   3.0078864  72.1324682  60.2410173
   3.0561024  72.2408009  58.7320662 112.1369664  97.8863335  69.5923805
 113.0401979  97.7768707  69.2950201 112.1050771  98.7783241  69.9381495
  69.9694117  76.0792906  19.4006931  70.7604526  76.5975172  19.2526161
  70.0333835  75.3597910  18.7726319  31.8307471  90.9857273  88.2980728
  32.5279808  90.3938389  88.0156517  31.1422491  90.8748913  87.6423931
  87.2841324  45.8907587   3.5506928  88.0767335  46.0115797   4.0735924
  87.1169485  46.7515070   3.1667816  48.5596217   6.4609622  56.8370390
  47.9013599   7.0118427  56.4134216  49.3971277   6.8234825  56.5482664
  84.1882728  51.5938616  60.3080940  83.9546965  50.6807852  60.4753160
  84.3659519  51.9582987  61.1751842   8.5842389  69.2569637  73.2917404
   8.9871186  68.5760212  73.8304758   9.0702283  69.2291212  72.4675608
  99.6643995  77.8321743  71.5175438 100.0109540  76.9551706  71.3532257
  99.0733145  77.9976320  70.7830572  11.5547574  59.5073080  56.3009596
  12.3344827  59.2446566  56.7901134  11.7326009  60.4088163  56.0328484
  54.6653260  -0.3157616  52.3221207  55.0241948  -0.2214242  51.4397717
  54.5114256   0.5823230  52.6153755   6.8710721  94.7896767  71.6078901
   7.7152133  95.0585651  71.2454605   6.7825979  95.2998924  72.4129248
  21.2494659  91.5548515  61.2129116  21.2213182  90.6375313  60.9409523
  20.3637934  91.8799019  61.0511732  95.1906623  31.5690882  23.7672054
  94.4423069  31.1655409  23.3274853  95.9177758  30.9689028  23.6019146
  55.1806259 106.1003876  71.9682407  55.9491014 106.6479301  72.1290827
  54.9449635 105.7590199  72.8308916  28.2425070 103.8239193  73.9560032
  28.9635444 104.2889881  73.5316801  27.4589515 104.1276455  73.4977198
  25.0327253 102.0057106  89.3344021  24.3698597 102.6681042  89.5295334
  25.5262733 101.9134331  90.1493454 104.0726064  89.3644810  64.0980244
 104.4302295  89.1906548  64.9687290 103.7742250  90.2730751  64.1386557
  93.3319665   2.0001697  44.1606426  93.8771630   2.0938873  43.3794832
  92.8994180   2.8489398  44.2540693  99.7777735 101.2798977  56.4410734
 100.3941248 100.5487633  56.3987207  98.9311455 100.8695412  56.6173124
  13.3001518  49.0022802  82.6013374  14.0534890  49.5731592  82.7523613
  12.7514601  49.4877148  81.9852829  64.5894338 106.4164670  27.5383103
  64.4504715 107.3605759  27.4636471  64.3831659 106.2154706  28.4511578
 109.4688801  75.0636959  69.4163704 109.5895688  75.6326294  70.1766205
 110.1929004  74.4396210  69.4669056  19.0306675  72.2773170  75.6075573
  19.7016096  71.6430426  75.8600712  18.3641231  71.7557096  75.1604843
  72.9767896  29.7705459  90.2018070  72.2119380  29.2038249  90.3020859
  73.7237526  29.1976833  90.3753281  99.8362766  39.6009064  80.8064365
 100.3575669  40.3313255  81.1395645  99.3701492  39.2696166  81.5740299
  63.9514245  53.4365923   4.4925701  64.1942026  53.1363470   5.3684342
  64.7865118  53.5555727   4.0401280  94.8132862  72.5425131  17.4711048
  94.4268097  73.3366949  17.1021187  94.4257225  72.4704916  18.3433640
  72.3890353   9.3816375  78.4280014  72.6236630   9.2816543  77.5054073
  72.0663215  10.2801513  78.4970474 108.4892763  91.3862514  92.2587013
 107.9190241  90.6176567  92.2764492 107.8882645  92.1309471  92.2798157
   4.9625766  90.1999474  40.3046751   4.1499645  90.6458855  40.5434799
   4.6800980  89.3449020  39.9801230 103.9950334  57.3291969  64.7441721
 103.4261601  57.2539711  63.9780378 103.4905957  56.9363880  65.4565430
  93.8169526  65.0646925  56.5588331  93.8785730  65.2211428  57.5011492
  93.9336561  64.1192913  56.4648724 110.6795584  78.8815117  44.0529823
 111.4854871  78.6075878  44.4907904 110.0174777  78.8753462  44.7442436
  92.3842718  68.4641344   8.4726154  92.0755066  68.5778887   9.3714821
  92.8661813  69.2687303   8.2812702  14.8894131  91.7331600  67.5907421
  15.7473826  91.7337322  68.0151463  14.8767436  92.5394821  67.0750713
  97.4596216  26.4199383  45.8014023  96.7441966  25.9691650  46.2499630
  98.2060029  25.8264095  45.8842766   5.7907552  64.5725918  53.7374735
   6.0322809  64.3103123  52.8491545   4.8336384  64.5839310  53.7319756
  15.4678297  70.4282808  67.2293282  14.6269524  70.3362083  66.7813540
  15.4644799  69.7354555  67.8897905 111.5423265  87.0170879  67.8583288
 112.3427470  86.8344879  68.3504820 111.0550995  87.6277256  68.4114647
  57.4380327  75.8512409   2.5992214  56.8463040  76.5970619   2.6984226
  57.2153545  75.4807718   1.7451775  15.1726961  81.5126133  77.7158689
  15.3033948  81.1338234  76.8465710  14.8993313  80.7742500  78.2602262
 105.9151082  72.8116322  89.8734570 106.7205273  72.4178982  90.2088737
 106.0278206  72.8147221  88.9229298  86.2803863  86.1145592  70.2477407
  86.2733625  85.3234386  70.7865429  86.2814282  85.7908440  69.3469429
  10.0057733  95.9379578  70.9028435   9.5867330  96.7113304  70.5253124
  10.9428871  96.1281586  70.8595943   4.4205338  87.5051498  53.2661676
   4.2711270  88.4222031  53.0361176   3.7449044  87.0249844  52.7874231
  35.5226970 105.8061981  87.1478367  34.7583532 105.9948254  87.6922894
  35.4785109 104.8628807  86.9915295 111.3762850  67.5218725  89.6337318
 110.4898001  67.4170542  89.2882061 111.2698363  68.0870533  90.3988934
  25.7683849  83.2256413  77.7490139  26.6234756  82.8676701  77.5104713
  25.1633310  82.4915695  77.6428080  15.4261887  92.0608711  43.8900805
  15.9858847  91.3149071  43.6744213  15.9937143  92.6504803  44.3865728
  22.8104246  87.2755988   5.2075970  21.9433797  86.8767173   5.2807915
  23.3173312  86.8784554   5.9157955  10.2286351  59.2688274  73.7993813
  10.0780976  58.3660364  74.0796328  10.1684666  59.7827864  74.6046495
 111.9609113  91.1946583  48.7665749 111.6777782  90.8377361  49.6083975
 111.5266730  90.6442928  48.1148338  10.8845794  88.7674522  86.2142563
  10.6788337  88.7561798  87.1490192  10.6468475  89.6491432  85.9273052
  16.5113604  89.4537830  66.6199255  15.6130028  89.1658974  66.4577293
  16.4950418  89.7979164  67.5129747  17.8196859 100.9670067  47.2345543
  17.8989816 101.3728619  46.3712883  18.7083220 100.9842968  47.5898838
  89.4631313  99.1300678  87.5976086  90.2014182  98.6482716  87.2247219
  88.8919829  98.4517479  87.9580402  12.0281839  96.9260216  90.4342937
  12.3592174  97.1517849  89.5650005  11.2136042  97.4219131  90.5166149
  20.1611876  96.0879707  64.8710728  19.3412757  96.4542198  64.5396662
  20.1984334  96.3718605  65.7844448  32.8049660  76.5572166  85.8532333
  32.5347233  77.4170303  86.1755943  33.7133312  76.4679766  86.1415768
   3.6802545  78.2744694  81.0054302   3.7060514  77.8395653  80.1531315
   3.7659591  79.2058182  80.8017731  11.9300663  87.9292870  33.5170650
  12.0230412  88.6958218  32.9513669  12.4183822  87.2394085  33.0677891
  35.8348417  41.1394024  63.2402086  36.1985731  42.0247889  63.2445860
  34.9360919  41.2481451  63.5510969  24.8653626  70.1436710  70.3611374
  24.9065876  70.4859543  69.4681740  25.7575393  70.2374125  70.6949997
 104.6075393  31.2862379  16.3227379 104.4543745  31.6344053  15.4443466
 105.5527879  31.3661749  16.4505970  21.1444116 104.3079281  89.7017097
  20.4295325 104.4308949  90.3262520  20.8468437 104.7505379  88.9068604
   0.0427620  73.9614391  78.4237242   0.1868875  74.0104055  79.3687439
   0.5446129  73.1957531  78.1442595 109.0277933  80.4568672  76.9919825
 108.6881538  81.0878944  77.6265526 108.2930450  80.2924633  76.4009237
   0.7288985  86.8012524  74.6723652   1.6037813  86.8471909  75.0579834
   0.1379769  87.0225143  75.3921461  11.2804115  73.1515026  86.0944271
  11.4871442  74.0535402  86.3390064  10.3829312  73.1925821  85.7641602
  87.6091518  36.6544039  14.9613487  86.9445242  36.9872267  15.5644524
  87.1588852  35.9743864  14.4602787   1.7195009  85.3373909  65.9240770
   1.4720447  86.1915016  65.5698156   1.3632253  85.3342438  66.8124962
  13.5623693 100.1197147  81.1250687  14.2093706  99.5030022  81.4675426
  13.3186352 100.6550980  81.8801880   6.6522032  66.2576866  35.3779268
   6.2940496  65.3702402  35.3579545   7.0402306  66.3789272  34.5113420
  89.6786071   1.6546995   1.3921082  88.7608017   1.3853294   1.4282429
  90.0133993   1.2572653   0.5882466  79.9889685  66.2052996  19.6125042
  80.7337220  66.7990477  19.5174324  79.2275538  66.7371637  19.3809998
  26.0619998  71.6083002  79.4340849  26.8606973  71.2500858  79.8213768
  25.8033252  70.9616423  78.7774658  40.5809168  11.2107658  81.0246563
  41.3856647  11.6626262  81.2784863  40.4352108  10.5712604  81.7218208
   4.9312097 106.9147205  59.4734621   5.6053889 106.2821388  59.2253590
   4.2147925 106.7545319  58.8592005 111.8541932 104.3149090  54.4559956
 112.2841959 104.7120857  53.6986446 111.3234197 103.6089134  54.0871000
   8.4569198  62.0504427  35.1362300   7.9811966  61.6069221  34.4339442
   9.1345930  62.5542307  34.6854663   7.3426038  80.4495239  31.3440800
   8.0232579  80.1717758  31.9571066   7.8128123  80.9413528  30.6708479
 112.2748644 101.7650223  75.9037161 111.4758553 101.9373798  75.4056120
 112.9836679 102.0399094  75.3221130  66.8143965   6.3126754  83.0251026
  66.1884547   6.8114280  82.5000572  67.6029182   6.8551921  83.0370426
 101.4049183  79.8905468  78.9405823 101.4185570  78.9740849  78.6646461
 101.7599343  79.8783684  79.8294258  64.9960040  95.2579117  79.7116566
  64.7913788  96.0380745  80.2271175  65.9124039  95.0702572  79.9147034
  65.6816910  68.9991474  91.0625362  65.4627655  68.0673695  91.0718727
  65.0763510  69.3937111  91.6903305  35.7990384 104.8975372  92.0576954
  34.8626256 105.0376892  91.9172573  35.8698225 104.6614838  92.9826260
   4.8073077  77.2290707  53.0265284   4.8620826  76.2759066  52.9578733
   3.9218929  77.4400520  52.7302837   7.9754061  75.8058786  73.5317945
   8.2696950  75.1654196  72.8841543   8.7130195  76.4088058  73.6247206
  22.5599909 100.5633450  72.2404575  22.4534392 100.8306694  73.1533766
  23.4689617 100.7792759  72.0321894  18.0987227  92.0730591  39.7219014
  18.3424938  91.1949635  39.4290543  17.1438742  92.0482922  39.7842121
  72.2909332   0.4966068  80.6663704  72.6542497  -0.3851128  80.5839252
  72.8993011   1.0527992  80.1797867  79.2620154  43.1589109   2.4368298
  78.5929306  42.6736814   1.9540131  79.6789761  43.7129862   1.7769921
  62.5605989  18.6437797  26.1038375  61.6539646  18.4292411  25.8842587
  62.6685263  19.5504188  25.8164668  34.9188972  62.4944544  85.1622105
  35.7519555  62.9655647  85.1448250  35.1327634  61.6437769  85.5453968
  29.8143768  98.2865047  39.3934727  29.5729518  98.9065170  38.7053347
  29.0083408  97.8026104  39.5734334  14.3894088  76.6153479  80.8257771
  14.9143875  76.0117245  80.3001690  13.5017014  76.5247440  80.4793739
  51.8862224  13.9374732  55.0486326  52.3750711  14.5525360  54.5018625
  51.5894450  13.2602310  54.4407701  98.4076463  43.0323362  81.5579033
  98.5908101  43.8852501  81.1639214  97.9030453  43.2356930  82.3454666
  61.2725783  95.7631333  14.7675144  61.9663454  95.9540923  14.1362774
  60.6213165  96.4494879  14.6225655   6.7109126  76.3844252  67.9534435
   7.3457766  77.0324039  67.6479816   6.5631318  75.8182907  67.1958876
  75.9742142   3.2131767  57.2161865  75.7956410   2.9959201  56.3012314
  76.1112476   2.3664569  57.6410627  38.6091423  49.3564272  74.7301102
  38.5092092  50.1576042  74.2159510  39.4965315  49.4087839  75.0851202
  10.9522772  92.9364586  56.1062479  11.0557437  93.4599018  56.9009399
  11.1760628  92.0455647  56.3754320  85.6192996  28.5310347  28.5840523
  86.0378434  27.7191145  28.2979595  85.2022858  28.3054239  29.4155800
  78.7650298  78.9894533  57.0554209  78.4695457  79.6724176  56.4533567
  78.8414071  79.4319963  57.9007339  42.2017145  84.6333122  72.2260284
  43.0931664  84.3203831  72.3797321  42.0884705  84.5772934  71.2772036
  24.3003727   2.1130084  81.9749260  23.9787162   2.8612708  82.4777794
  24.2832757   1.3831996  82.5940514 102.3243771 102.4089527  81.6418266
 101.7528628 102.1193504  80.9306717 102.7537130 101.6089439  81.9449520
  11.5423238  55.3073502  72.5017595  11.0041749  54.9072599  71.8187094
  11.8867147  54.5662546  73.0001593  83.8893874  36.4927751   9.5408737
  83.3815487  35.7042200   9.7319615  83.9003302  36.5448648   8.5851586
  49.6290017   5.2407550  51.8889618  48.9674891   5.2415084  51.1971331
  49.9564958   6.1399841  51.9081879  56.9386185  98.0621321  23.9978325
  57.1184624  98.9357502  23.6504376  56.4139331  97.6377709  23.3189785
  91.3410948  89.4585705  57.4562120  90.8544825  89.0600491  58.1777573
  92.2592615  89.2787647  57.6583862   4.9886706  68.0367804  78.0922747
   5.0906062  67.0899630  77.9954386   5.8663422  68.3512259  78.3091784
  24.9613643  84.7927666  75.6756210  25.1587582  84.3397713  76.4954138
  25.7963204  85.1757526  75.4065466  10.2657366  93.6328220  77.0971727
   9.3542075  93.5188580  77.3661661  10.7389128  93.7889481  77.9144621
   2.6897669  67.2506237  65.7341242   2.7836138  67.0252466  64.8085785
   2.7265579  68.2069349  65.7526922 103.3712079  23.8286859  17.8834736
 103.0298115  24.7191269  17.9659283 102.6164533  23.2658560  18.0560982
  23.0064321  58.7729692  46.4760876  22.1029997  58.6269140  46.7566395
  23.3390713  59.4395781  47.0771027  26.8207979  70.0362968  47.7440643
  26.5973306  69.5500088  48.5376740  26.3304639  69.5980310  47.0485592
 104.0820472  72.7890921  44.9555635 104.1802649  73.4958076  45.5936337
 103.1640194  72.5276756  45.0271130  26.4187908  78.2343626  65.1649189
  27.1652126  77.6453638  65.2752256  25.8613181  78.0591059  65.9230375
 112.2351080  97.4184322  79.7418690 112.8459617  98.1435585  79.6103954
 111.4905696  97.6271820  79.1776705  74.9226783 101.9305420  69.8937845
  75.2449797 101.3084221  69.2416191  74.5228122 102.6315117  69.3790245
  16.2183416  68.4562635  43.7646437  15.3196704  68.7609482  43.6389875
  16.7310441  69.2581081  43.8666725  26.6232586  50.2017307  71.0964012
  26.4140749  49.9374628  71.9922972  27.0016932  51.0762835  71.1868286
   9.4195241  50.2012253  84.6105480  10.3183329  50.5289650  84.5795536
   9.2808479  49.9688530  85.5286980   9.7911185 103.7128448  70.4665995
   9.3677545 103.1355667  71.1020088  10.7012808 103.7638378  70.7585478
  15.9696412  68.4915829  69.2346334  16.1016238  69.1845369  69.8816490
  16.3479054  67.7109098  69.6392393  80.8445360  89.2370397   1.8541062
  80.7821097  88.3031828   1.6535103  80.9439875  89.2715341   2.8055012
  28.4278721   2.6786041  71.9531727  28.9450056   1.8732833  71.9696331
  28.7098033   3.1602191  72.7308559  19.9426448  87.5719738  38.8935137
  20.2069879  86.8346024  38.3433890  19.7745216  87.1824646  39.7515631
  91.7278956  74.9539185  87.0036221  92.6142167  74.6650743  87.2209644
  91.8549989  75.6655741  86.3762283 109.4698255  55.4548407  76.5434361
 108.9910041  56.2192249  76.2230015 109.7299977  55.6911278  77.4337769
  68.7325860  11.4972877  77.4171972  68.1551243  12.2557449  77.3305559
  68.1390954  10.7586574  77.5529766  60.1244736  90.4102802  90.2772903
  61.0032797  90.4111958  89.8979092  60.2612972  90.6291008  91.1990452
 112.7240263  75.6679296  62.7242422 112.1027964  76.3945913  62.7718544
 113.3571708  75.9373093  62.0588160  90.1819720   6.5154726  13.4957516
  89.3362583   6.2307484  13.1494438  90.4247250   7.2634346  12.9499924
  20.0337005  75.1341248  79.6914148  19.2099345  75.1707458  79.2053080
  19.8070991  75.4390144  80.5700111 110.6669138  78.3898067  85.3553009
 109.9606542  78.2612944  85.9884739 111.1303067  79.1668749  85.6678104
  22.6271439  61.7516232  69.1749811  22.8152251  62.2831535  68.4014606
  23.4887218  61.5228701  69.5236731  61.6123237  28.6903173   0.9900772
  61.3479139  29.4440824   0.4626763  62.3222400  28.2861311   0.4912007
  58.1238367  25.5561001  18.0018341  58.8110973  25.1499206  17.4736988
  57.7593984  26.2378532  17.4373543  34.1579890  94.0943718  52.2774076
  33.5026383  94.6847248  51.9056082  34.9729896  94.5958138  52.2536755
 110.0809382  61.9912243  77.0241785 110.7937671  61.4820290  76.6383934
 109.2851017  61.5370369  76.7474318 103.1182109  44.3164730  59.4847536
 102.2399555  44.3585253  59.1064262 103.4167086  43.4262085  59.2988443
  12.4853396  96.8364239  70.7030392  13.0901015  97.2965336  71.2850952
  12.2313535  97.4927521  70.0542307  30.6229043  78.0963945  53.8740492
  31.0933971  78.5892057  54.5463610  31.0999703  78.2798290  53.0647326
  19.0979326  80.5121899  71.4885902  19.1358137  79.5745516  71.2998152
  19.7990024  80.8916950  70.9587717  42.6259548  21.9202041  60.5651188
  42.9660351  22.4757194  61.2665272  41.6755734  21.9504928  60.6750679
  41.5999556 100.8450127  45.5685616  41.6183758 100.1220131  46.1955881
  42.5207138 101.0703850  45.4357481  26.1740327  68.9915323  83.1722927
  26.1484051  69.2590857  84.0909863  25.4094005  69.4120598  82.7789402
  49.1754557  16.1343574   3.1233329  49.3568195  15.8307075   2.2338766
  48.4666754  15.5686664   3.4296876  95.0261547   4.0396387   0.6487190
  95.6946661   3.9758856   1.3308155  95.4610957   4.4969971  -0.0709236
  31.4541841  96.1076927  66.3192558  32.4012399  96.2317657  66.3818693
  31.3505483  95.3214359  65.7832479  23.2622957  94.7310925  73.1812334
  23.0342865  93.8289356  73.4056473  22.5017548  95.2449799  73.4527636
  70.5401020  28.2585699  12.1071541  70.7692696  28.4360678  13.0194103
  71.3421030  28.4433920  11.6184151  84.9534829  40.4961283   4.5664322
  85.3996821  40.0399668   3.8529503  84.0220393  40.3901369   4.3730175
  31.4440012  98.7773037  71.8477297  31.0999322  97.8894806  71.7497301
  31.8987346  98.7663364  72.6899481  49.4371128  99.3051147  53.5073566
  50.0057459  99.5541954  54.2359447  49.4480228  98.3479881  53.5113907
 102.2442387  78.9410973  35.3452659 102.0339178  79.4597578  36.1217904
 102.3016582  78.0412722  35.6665945  82.7900078  53.9297182  11.9313728
  82.7070053  53.4634382  11.0995590  82.0688935  53.5967810  12.4655831
  29.4373417  98.2262611  66.8086195  29.2832255  98.4653187  65.8946562
  29.9365354  97.4108696  66.7620087  28.1405377  50.7269192  38.8251472
  28.8738489  51.0209465  38.2847452  28.4825134  49.9706602  39.3019676
 107.1472643  64.9005556  77.6534128 107.3457985  64.4148779  76.8528318
 106.3022815  64.5542622  77.9403210  13.8678479  75.7776737  55.1902294
  13.4976733  74.9253893  54.9604225  13.1653821  76.2243795  55.6627035
  15.0596070  60.5092955  79.4162369  14.4003510  61.1185265  79.7485828
  15.4123247  60.9395647  78.6373329  75.8770846  89.8919201  80.5928707
  75.3119682  89.1335487  80.4454136  76.0002397  89.9179554  81.5417576
  31.8873191  31.5366912  55.4030704  31.2018871  32.2030306  55.3540325
  32.5540829  31.8328977  54.7834587 102.3252188  80.8446407  85.9788513
 102.9718874  80.7344913  85.2817726 102.2679172  79.9825239  86.3908100
  33.5662150  81.3303661  58.1931686  33.1499195  81.9169426  57.5616217
  32.8412294  80.9879303  58.7160158  13.7044001  95.6332302  61.0812950
  14.3372190  95.1085091  60.5909538  14.2412126  96.2260532  61.6072559
 107.8233288  84.1887379  88.8970661 107.4241959  83.9469242  89.7327995
 108.0464248  85.1141930  88.9970684  21.7723919  15.6134509  50.4650640
  22.1973766  15.8698177  51.2835360  20.9177829  15.2766418  50.7342005
  76.0838176  26.2051486  66.0104990  76.3114429  25.2758598  65.9813499
  75.1267649  26.2170600  66.0222816  96.6905270 100.2669621  51.1548758
  97.1228503  99.4673061  50.8550644  95.9975956  99.9598503  51.7394781
   3.1343430  89.2358875  60.1038361   2.8650171  88.3231926  60.0004101
   3.7988105  89.3676281  59.4275522   9.9659923  28.4432585  30.2638733
  10.5368856  27.8473265  29.7789108   9.7893527  27.9885466  31.0874378
  30.0842738  71.1990309  39.2953968  29.2715907  71.3895416  38.8269043
  30.1776314  71.9213247  39.9165297  27.0442271  78.3003664  43.9638948
  27.4755287  77.6216078  43.4447670  26.5728188  77.8187180  44.6436167
  37.8907490  92.5587082  41.7258167  37.3960710  93.1040192  42.3375082
  38.8070321  92.7734470  41.9005919   4.3084037  44.5886326  49.9465609
   5.2435714  44.5428896  50.1455593   4.1721246  45.4854774  49.6410656
  16.3177156  83.1794357  49.3104506  15.3997731  83.4502888  49.3262672
  16.2938941  82.2695827  49.0140772  13.6428881  55.4226065  75.6765127
  14.3821728  56.0073328  75.5098343  13.8662732  54.9817705  76.4962673
  84.1089268  27.6116926  22.7733147  83.6392738  28.2510454  23.3089173
  84.9622543  28.0145056  22.6126778   3.0633354  30.5101633  66.6745996
   3.8335055  29.9441910  66.7269945   3.3981380  31.3878536  66.8584442
  16.3716662  65.3941774  69.9482727  17.3183882  65.2996778  70.0532436
  16.0173953  65.2447510  70.8248520   0.7185505  61.8799925  79.2593765
  -0.0142659  62.3891783  78.9130545   0.3064825  61.1933088  79.7836828
  28.6070585  86.5706062  66.5228319  28.5250282  87.1950912  65.8020496
  28.2260823  87.0224762  67.2757626   3.5341060 104.2582798  64.5669603
   4.3978813 104.2382717  64.1549826   3.5960227 104.9559498  65.2193832
  76.7187906   5.8270931  75.7876110  76.6128279   5.2025604  75.0699997
  77.6244784   5.7106780  76.0746765  80.5478563  35.3069860  15.8800423
  81.4686175  35.3279478  15.6192887  80.5358227  34.7721559  16.6737950
  54.6871484  11.9362258  47.2704935  54.9282730  11.3508891  46.5525341
  55.4543019  11.9417953  47.8429222   1.9687587 102.8251171  36.3060164
   2.0654361 103.1639385  35.4160261   1.3538636 102.0966530  36.2194967
 104.1546498  92.3387051  69.2899895 104.8832749  92.6119423  69.8473740
 103.8148527  91.5486336  69.7101736  55.3827275  96.0464365  11.5735161
  55.4424334  97.0011790  11.6071999  56.2914515  95.7481320  11.6117775
  55.7463349  23.0075168  78.6382866  55.1048363  23.6189460  78.2765388
  56.4258922  23.5675430  79.0135288  49.9389804  15.8198165  78.8419867
  49.4801319  15.3266334  79.5220280  49.5126856  16.6768360  78.8387585
  63.3145667  32.6599979  54.5450544  62.5098635  32.3949336  54.0996075
  63.5209251  31.9259834  55.1237297  18.1159055 101.1089993  60.5720377
  18.7331808 100.9947395  59.8494387  18.2744992 100.3577137  61.1435747
  51.7142917   5.3471279  63.2249737  50.8936275   5.4757785  63.7005663
  51.5538848   5.7301330  62.3625278  13.1884718  71.1507511  66.0421658
  12.6545167  71.6109562  66.6897297  12.6476991  70.4097462  65.7688427
  80.7854976  38.6332304  11.3942921  80.9849401  38.2724649  10.5303967
  81.5293224  38.3757097  11.9389355  19.4874465 100.0008392  65.7528162
  19.2474008 100.8883667  66.0190821  20.4446316 100.0028706  65.7479572
  67.8735710  19.5753669  66.4120865  67.2109199  18.9735412  66.7511082
  67.6296831  20.4279041  66.7725420  95.4057144  82.9314232  68.9030170
  95.6907628  83.2586098  68.0498266  94.5793484  82.4829006  68.7236404
  20.5459381   4.5473384  78.5266256  21.1814893   4.4161891  77.8229904
  21.0229958   4.3221092  79.3253279   0.4691273 105.0599575  82.3737526
   0.1742693 104.5950890  83.1568146  -0.1103584 104.7490788  81.6782188
  33.7639356  81.2463093  47.4677181  33.7924647  80.4635715  46.9175005
  33.2027674  81.8557739  46.9882727 110.7335021  98.6884117  60.9703159
 110.8903977  98.7257195  61.9138336 110.9539717  99.5652485  60.6560040
  48.2337904  85.7719231  74.8686075  48.3009386  85.8889008  75.8162546
  49.0376520  85.3121376  74.6264744  15.5409777  81.0811520  74.8245096
  15.5701911  81.9930935  74.5351219  16.3557518  80.6998539  74.4974232
   1.3855294  46.2462694   6.5941441   2.0060209  46.7727930   7.0981228
   0.8184078  45.8474619   7.2541153  36.2915123   9.1747951  78.1487703
  35.7317098   9.8989868  77.8687716  36.9561531   9.5857334  78.7015963
  19.9796021  84.4209385  81.5661621  19.7765994  85.1565170  82.1440506
  19.5907950  84.6624279  80.7254791  64.5865560  27.0207405  58.5776329
  65.5149031  27.2466659  58.6355829  64.4949842  26.6017913  57.7218723
  30.6733084  64.0359259  68.4459162  30.8879662  64.7295713  69.0696287
  29.9945521  64.4165993  67.8885889  57.5996948   6.4228057  64.4539499
  58.4847761   6.7193794  64.2420387  57.6751483   5.4707717  64.5185852
  16.3629019  66.0910606  72.6975870  16.9333935  65.7690763  73.3955097
  16.9615531  66.4746284  72.0567083  42.2812891  78.8018990  49.1042519
  41.3490486  78.7531614  49.3158770  42.3043394  78.9997768  48.1680155
  38.5122894   1.1357307  59.4366884  37.9265654   1.7405319  59.8920679
  39.0484332   1.6973686  58.8769150  22.2489262  67.3886156  39.4601417
  22.7323794  67.7590418  38.7217021  22.8663611  67.4205971  40.1908827
  20.4444003  88.9837456  60.6136656  19.8864973  89.0423012  61.3892603
  19.8734295  88.6246777  59.9344730  30.7774976  38.2830793  10.6030285
  29.9943403  38.0779440  10.0923264  30.9273103  37.5021536  11.1358845
  24.0219188  91.2353420  58.9795160  24.2485261  91.1177063  59.9020338
  23.4472561  90.4968452  58.7779856   8.1242353  72.8268337  53.7192631
   7.9681224  73.6199093  54.2319918   7.5200766  72.1814966  54.0863657
  72.5166537  24.7736723   7.3282540  72.2675751  25.6828482   7.4943554
  73.4710600  24.7696478   7.4012196   8.7382034  47.2390348   1.2446892
   9.6072772  47.1916658   1.6430676   8.1375173  47.3028452   1.9872105
  22.5193119 100.3935719  53.4057903  22.9158163  99.6767616  53.9009571
  21.5799427 100.3052044  53.5670710   0.0626392 105.0175858  88.6442947
  -0.4574902 105.5452347  88.0382538   0.5211513 104.3914700  88.0839539
  94.1520215  25.3482055  66.6400146  94.4733811  24.9364375  65.8378887
  93.1990386  25.2845954  66.5766907  43.0124474  40.7474136  74.1242838
  43.6877298  41.2030363  74.6269131  42.5651789  40.1975107  74.7675467
   7.6895434 101.8847942  84.1918755   6.9327420 102.0288944  84.7599602
   8.1622589 102.7169895  84.2069721  46.0980017  26.0666370  51.1621094
  46.1282260  27.0228862  51.1319399  45.1646329  25.8575439  51.1986208
  81.2260129  43.2191164   5.2750694  82.1368905  43.0110056   5.4829704
  81.0484780  44.0262205   5.7580769 108.1414013  84.5533848  92.3303318
 108.9537312  84.1073990  92.5700188 108.3817859  85.1053524  91.5861702
  92.1231650  94.9779987  53.1809616  91.8325232  95.7374954  53.6858749
  91.9066451  94.2264366  53.7327719  31.6708107  16.5644073  81.2651825
  31.3858772  17.2117900  80.6202507  31.3441945  15.7303333  80.9277248
  27.9898191   4.4287872  67.1373796  27.4288464   3.6601257  67.2408819
  28.3548892   4.3420410  66.2567949  49.6108294  89.0117836  73.2895803
  50.3183079  89.6424770  73.1556654  49.9764395  88.1763840  72.9986191
   3.7149549  20.4062080  74.9873352   3.0071069  19.7736549  74.8645878
   4.4782925  19.9926757  74.5841789  19.5647287 103.0596638  54.0731668
  19.4098616 102.4592686  54.8023939  20.1073384 103.7544632  54.4460630
  24.0225220  70.4677296  46.2073231  23.8142753  70.8892822  47.0410872
  23.2818007  70.6806755  45.6396770  21.3856605  25.8363420  11.3920033
  21.5840343  26.2384159  12.2377121  22.2038511  25.4145605  11.1295235
  12.1571386  82.0688820  73.0208111  12.5167298  81.2443638  72.6935434
  12.8916347  82.6816082  72.9846716  60.2101088   4.7991943  44.4723082
  60.2276278   3.8807201  44.2033720  59.3253446   5.0947761  44.2576933
  41.1987877 106.4027691  63.1823111  41.9017029 105.9463882  63.6447620
  40.7813406 105.7243538  62.6515484  63.4094120  22.6375865  50.0948954
  64.2212487  22.3201847  49.6994114  62.8329469  21.8734931  50.1044655
  56.4461435  10.5557060  59.1627693  55.5371345  10.3096198  58.9913750
  56.9081200  10.3462219  58.3510256  89.1100408  46.7593462  -0.0090587
  89.5672955  47.0764048   0.7698071  88.9545323  45.8311731   0.1657307
  47.4420423   3.8174343  57.0220900  48.0939425   3.3121967  56.5362978
  47.7829028   4.7118854  57.0211792  78.5100509   5.5747413  65.4946852
  77.9087258   6.2928008  65.6922340  79.2470122   5.9946632  65.0510740
  17.3766363  79.3526697  59.6103525  17.0847750  79.2043066  60.5098152
  16.9282532  80.1547432  59.3422699  28.8885004   3.5322856  17.8267932
  28.6418129   2.9433917  18.5399461  28.4593690   4.3606662  18.0409217
  12.9622674  78.9699507  69.0226221  12.0993245  79.3817139  68.9777708
  13.2000339  78.8119411  68.1089878   8.0581191  27.8734476   3.4307968
   8.6845878  27.9203875   4.1529858   8.0339101  28.7623674   3.0765640
  15.4744518  97.1849537  64.3353939  14.5669627  96.9359684  64.1601753
  15.5267501  98.1027699  64.0687370  63.9277769  21.4819049  82.5033379
  64.7676993  21.4929771  82.9622936  63.2792307  21.3454914  83.1939983
  60.7151794  91.4028263  76.8721485  59.9941254  90.8176804  77.1043491
  60.4172754  92.2703362  77.1458435  72.9894806  17.7769279  78.0585289
  72.0485354  17.6142501  77.9922867  73.1312300  18.5741805  77.5480986
 100.0480245  67.8717470  90.2880096  99.3113397  68.1650162  90.8242130
 100.7005404  67.5719261  90.9209061  90.6884240  77.2603512  39.5980120
  90.7420944  78.1826925  39.3477368  90.5043982  76.8002701  38.7790537
  77.1901113  58.1969816   3.1103146  77.0711149  57.5139887   2.4503052
  77.1170659  57.7371771   3.9466583  71.1401033 106.3327789  41.5490818
  71.0245609 107.2560978  41.7735052  70.3117800 105.9210110  41.7951727
  14.8552155  84.2119217  64.2516565  14.8355162  85.0342655  64.7411442
  13.9600706  83.8777256  64.3087292  40.3539953   3.8295173  44.0172100
  40.2410410   4.2706870  44.8591375  39.6397548   4.1631412  43.4742641
  13.3714068 105.7431412  64.7190094  13.4682930 104.7971153  64.8279905
  13.1482780 106.0633183  65.5930424  92.5438357   0.8899497  53.9346838
  93.1546403   0.7710266  54.6620131  93.1009913   1.1056899  53.1868505
  25.0115442  77.2906303  60.0015974  24.1944146  77.7795362  60.0990725
  25.3047538  77.1328402  60.8990192  64.3190361  20.0007915  52.0062828
  63.8638330  19.1656112  51.8990469  63.8324810  20.6115627  51.4527035
   8.6346686  62.2002029  64.8257065   8.2052135  61.5040350  64.3285608
   8.2927960  63.0104017  64.4476414  64.2923451  37.1444797  76.9841671
  65.0100542  37.3712921  77.5755072  64.6972133  36.5887260  76.3182449
   3.4270767  39.8484308   6.3425743   4.0337280  40.4978258   5.9869110
   3.9426521  39.3688852   6.9909870  99.0628673  42.9377062  14.9109566
  98.2812478  42.4737055  15.2109539  98.7271239  43.6263544  14.3371308
  18.7126637   8.6008453  68.1358624  18.7103344   7.6818180  67.8682518
  18.2298911   9.0530013  67.4439669  11.2817633  77.3117971  71.0112333
  10.5913115  76.9803524  70.4370785  11.9962811  77.5430870  70.4177666
  92.5180401  61.3506395  23.4966671  92.2840752  60.4848749  23.1620991
  91.6781105  61.7849810  23.6453259  36.6669761  17.4302768  78.1457424
  36.6491605  18.3767223  78.2877159  35.7449866  17.1788120  78.0915976
  89.8105396  12.0175106   7.4376595  90.1204564  12.3992092   8.2589256
  89.3184485  12.7223474   7.0166123  65.4494143   0.4481315  69.5600700
  65.7626296  -0.4180909  69.2997122  64.9863053   0.7769298  68.7895823
  57.6224745   4.6748924  46.2740946  57.2597242   4.6636772  45.3883600
  57.7082337   3.7510681  46.5095043  38.9175067  22.7978897  46.7921925
  38.7719956  22.5567626  45.8773613  38.1541141  22.4527835  47.2551870
  55.5387998  11.6406726  75.5365229  54.7769261  12.1356677  75.8377790
  55.6391753  11.8909645  74.6180916  30.9177923  87.3036003  54.5257950
  30.2254677  86.7809772  54.9305010  30.4881620  88.1240177  54.2837954
  61.9681669   3.2353210  37.4308181  62.2060634   3.2916068  38.3562732
  61.0275150   3.0581664  37.4356699   0.2119926  28.6365206  15.5638420
  -0.4253003  29.2962248  15.8374989   0.5392459  28.2652742  16.3831818
  29.1163988   3.0907821  69.3252850  28.5885079   3.6375808  68.7434101
  28.6103649   3.0462932  70.1365662  95.6160689   6.3701248  88.6231518
  94.7090865   6.4087676  88.9266682  95.8520032   5.4449176  88.6906052
  20.7901907  76.0073519  76.4290476  20.6945086  75.1183271  76.7706776
  21.6967440  76.0507870  76.1249018  91.1898158  94.4118309  28.0557871
  91.7296194  93.8581944  27.4915862  91.3347338  95.2999020  27.7293372
  71.5789200   9.8015499  65.4234362  71.5342022   9.1718769  64.7038937
  70.6957389  10.1666641  65.4774284  40.9356213  89.0989876  73.7699461
  40.7874823  89.5527363  72.9402447  41.3952494  88.2958889  73.5250044
  37.7628472  15.2460288  61.8642426  37.0866909  15.0623226  61.2120962
  37.5597495  16.1271953  62.1781445  38.8083109   5.7208347  63.4654379
  39.7364030   5.6725501  63.6946630  38.7598372   5.3514003  62.5837326
  44.7966106  26.7956638  35.1183891  44.7709794  26.7529296  34.1624880
  45.1386792  25.9430313  35.3871679   1.6267201  99.4143391  83.3268547
   0.7307122  99.2866516  83.0152512   1.9908419  98.5305595  83.3777142
  83.7121011   7.3856162  67.6052570  83.8169480   7.9743862  68.3526468
  82.9447652   6.8564605  67.8230095 103.8979410 107.0503521  87.7540207
 104.0828906 106.1635303  88.0631638 103.8617389 106.9690990  86.8009663
  30.1426578  93.2610130  69.7281504  30.7761884  93.0037785  70.3979969
  29.3795514  93.5601902  70.2225113  40.2774429  93.9831066  58.8595009
  39.5057416  94.4940662  59.1037035  40.9212971  94.1819286  59.5393181
  70.5853058   1.8072509  75.7900524  70.9766889   1.5633392  76.6288376
  71.3330794   1.9660663  75.2139902  46.9197655  95.0764561  61.8591070
  47.0293140  95.0579643  60.9083748  45.9885597  95.2556133  61.9894648
  67.0716334  26.0155963  58.2307529  67.1611310  25.4280185  57.4804354
  67.0989920  25.4369258  58.9927340   0.2696255   9.8793871  32.4433434
   0.3882721   9.7833092  31.4983952  -0.3771731   9.2120583  32.6725971
   1.1937303  60.7224798  48.1176901   0.2732844  60.7726526  48.3755541
   1.6783158  60.9018421  48.9234400   0.6775336 101.3761711  89.7997952
  -0.2424373 101.2436390  89.5710564   0.6764407 101.4694405  90.7524395
 101.9517972  78.6725695   9.0625298 101.2763836  79.3093569   9.2961037
 102.6007415  79.1797525   8.5748112  61.8559981   5.6907367  33.9640737
  62.2116519   6.0332393  33.1440520  61.7512203   4.7524547  33.8063121
  23.2569459  61.5249521   4.4867909  24.0286830  61.5463240   5.0526535
  23.1015781  62.4415571   4.2589104  51.7634916  85.2542114  48.2324457
  52.3934793  85.2786160  47.5122023  51.9183159  84.4107056  48.6575985
  47.0380355  27.5225830  57.3800182  47.8801704  27.8157138  57.0320034
  46.6765256  28.2950210  57.8146172 113.0607942  80.4307079  75.3682947
 113.6170921  81.0291290  74.8696375 112.7366970  79.8072529  74.7182941
  40.3604356   9.7605419  70.6498194  40.2382863   8.8497543  70.3819036
  40.5095244  10.2331638  69.8308945  38.9705110  88.7127590  85.3396988
  38.1764889  88.5854912  84.8205090  39.6012020  88.0961514  84.9678802
   8.6293733  91.3336754  78.1132460   9.1415328  90.5551720  77.8944969
   8.6192816  91.3526344  79.0702057  44.1217566  14.9699973  36.9773030
  44.2199088  14.7288989  37.8984237  44.8420341  14.5215034  36.5342641
  27.5544238  86.7483997  77.6167250  27.8977036  87.6236057  77.4367332
  27.6250625  86.2868881  76.7811108  70.1595076  92.4574930   5.4044735
  70.3947593  91.8595869   6.1139786  70.1683404  93.3248217   5.8093083
  21.1498237  -0.1721478  77.8968239  21.0653699   0.6419658  77.4005270
  20.6556095  -0.0146103  78.7012911  23.0679369  93.7009430  68.5393381
  22.9338050  94.0499115  67.6581669  23.1706309  94.4764137  69.0909910
  16.5220428 104.7454548  46.3077164  17.4177480 104.7382927  46.6451979
  16.5323114 104.1147614  45.5877542  72.7179144  87.3016071  36.1243796
  73.6200784  86.9929218  36.0404420  72.7040909  88.1328964  35.6500268
   7.7202934  88.9281178  27.6178861   6.9374996  89.4154167  27.8748131
   8.4416246  89.3925953  28.0423617  20.0174832 101.4466000  83.3979321
  19.8031414 101.3815498  84.3285561  20.5963707 102.2065544  83.3380318
  10.0152469  54.2592001  67.2440863  10.0548053  53.3085060  67.3482275
   9.0999705  54.4386959  67.0289516   1.0223810 100.0697136  73.3528423
   1.0314628 100.3735161  72.4451780   1.1521766  99.1234398  73.2900047
 100.1340534  49.5877821   9.1962635 100.5985500  49.0903932   8.5231507
 100.3801586  49.1650755  10.0190460  18.0296949  51.3784773   7.9119599
  18.7390807  51.8576605   7.4837219  17.2819618  51.9750006   7.8761780
  83.2373668   3.0691337  58.6868858  83.5403205   3.8815021  59.0924692
  82.6551295   3.3554077  57.9831266  22.1897173 100.1980877  40.2546835
  22.3733139  99.3405342  40.6382561  21.2351704 100.2677441  40.2696133
  21.1623406  83.8947201  57.8850269  20.5124521  83.3003616  57.5100470
  21.8419194  83.9606285  57.2141600 101.9948174  14.5358354   8.7673676
 101.3447048  15.0671417   9.2270481 101.4789178  13.8860113   8.2900822
  36.2242413  84.4326687  41.7073727  36.8277931  85.1448059  41.9190741
  36.4594412  84.1765118  40.8155775  48.1519020  10.0222206  76.1434841
  49.0102876   9.6152591  76.0260630  48.0518974  10.1008987  77.0921898
  22.2265792  78.8590670  47.6710367  21.5395904  78.2386827  47.9147673
  22.3521233  79.3967724  48.4529257  20.0006307   1.9163513  59.1253614
  20.2365256   1.0235786  59.3774271  19.6156801   2.2946357  59.9159002
   4.5874587 102.8312492  72.8296328   5.4175460 103.2547951  72.6110172
   4.4581753 102.1850204  72.1354389  84.0268363   8.0385906  22.3785698
  84.6673967   8.2002289  21.6858971  84.1075744   7.1033937  22.5659763
  23.1077290  93.4570503  57.4889469  23.3127618  92.6183701  57.9022312
  22.1607018  93.5499573  57.5925732  57.5990833   1.8170356  66.3676119
  58.5430051   1.9618987  66.3023663  57.5167085   0.9439754  66.7512894
  51.6307688  77.9912043  53.6111403  51.5354395  78.3094835  54.5088291
  52.1164560  78.6830425  53.1620312  72.7479001  24.6442301   3.3104527
  73.2972887  25.1397688   2.7031243  73.3296673  23.9724285   3.6660587
  43.3642534   4.2566378   6.4624226  42.6121476   3.8144857   6.8562042
  43.9841512   3.5522396   6.2732804   8.7306195 105.8390236  51.6531992
   8.6018121 106.6972637  51.2493849   7.9620904 105.7190323  52.2110510
 102.4649407  77.8555757  11.5466129 103.3910705  77.9265768  11.7778599
 102.3745300  78.3854563  10.7546055  69.2687537  16.2409098  13.2523739
  69.7304733  15.5131418  13.6687863  68.4528186  15.8555538  12.9330265
  20.4055333  93.7629128  57.9128551  19.6025264  93.2830048  58.1155872
  20.1680017  94.3272877  57.1771288  53.6070061 101.0286903  78.4240007
  52.7839041 100.6424427  78.7232494  53.3994579 101.9517040  78.2783651
  38.4140539  66.0939741  55.6978416  38.3834410  65.6901360  54.8305416
  37.7174449  65.6588221  56.1893845  77.7183008 101.1261177  30.8924627
  77.1748352 100.3405857  30.8307052  77.9309988 101.3421917  29.9845529
  22.2260809  74.2527819  71.6390800  22.5473714  73.6214542  70.9953165
  21.9128013  73.7149620  72.3662901  35.9014249  82.0377731  58.8659286
  35.8210111  81.5190601  59.6663666  35.0130963  82.0694923  58.5108280
  28.3875036  62.1553183  52.2225761  28.0813169  61.2506628  52.2864199
  27.6937532  62.6098204  51.7446947  53.5011530  91.5065193  84.8633194
  52.7570200  91.1436272  85.3437424  54.2134523  90.8869457  85.0214100
  71.8773151  98.9373858   2.1445286  71.6379119  99.3672974   2.9655564
  71.0473038  98.6180956   1.7904579  23.0767655 106.4501476  64.9120712
  23.2921505 107.3807526  64.9738550  22.4730468 106.2952900  65.6385517
  26.4431357  68.2833672  49.7667980  25.8250785  67.5524950  49.7744751
  27.1957278  67.9658651  50.2658224  32.4388361 100.2556992  49.4953108
  32.6419902 101.0897064  49.0717697  32.9296851 100.2784061  50.3167629
  49.1647816 101.5791988  38.6391497  49.6336508 101.3451195  37.8381515
  48.8034821 102.4473381  38.4601760  15.4892209  23.1869776  31.8450939
  15.7565931  22.2688515  31.8027317  16.2050536  23.6644871  31.4258110
  45.8231027   0.6416129  72.4757338  46.1941648   0.6116390  73.3575773
  45.2745307  -0.1408101  72.4199820 104.6235220 101.0773849  17.5008154
 104.7648565 101.3616943  18.4038246 104.9450622 101.8044472  16.9676924
  99.8842169  30.0370485   0.3107178  99.7836568  30.7586462   0.9315407
  98.9905836  29.7356207   0.1470482  18.4523726  87.8314209  56.3666058
  19.2165506  87.4288845  55.9540129  18.5446835  88.7659931  56.1814547
  28.8588131   6.4719486  74.2247391  29.4286216   5.7058715  74.2931223
  29.0658242   6.9943618  74.9996376   9.8403168 101.1320686  62.5364304
  10.0056040 100.3326511  62.0365953  10.7114935 101.4553070  62.7662086
  54.4338775   9.0219497  55.7443333  53.9794792   8.1998157  55.9282875
  54.7634972   9.3091583  56.5958595 107.5704418  80.9489536  43.2014847
 108.1250505  80.2594185  42.8365564 107.0048730  81.2109947  42.4750519
  85.9644415  55.3431589   2.3251640  86.2432410  54.7002298   2.9772007
  86.7792513  55.7373888   2.0138848  13.8196516  80.5310345  61.8265915
  13.7220740  79.6849871  61.3896561  13.7570798  81.1740112  61.1202574
  35.2659082  65.2618599  46.4530945  34.4058728  64.9327898  46.1917830
  35.6997442  64.5077419  46.8522501  63.3569624  45.2945978   1.5765488
  63.1287016  44.7424013   2.3243439  62.5143172  45.5463106   1.1986267
  35.0303463   7.9712676  62.7230167  34.6070073   8.2066059  63.5486269
  35.4944856   8.7650394  62.4570608  88.6558650  70.7680035  91.7065620
  88.0829595  70.3771353  92.3662758  89.0570210  71.5153313  92.1501827
  12.5903535  71.1687374  61.3789034  11.9702685  71.8756294  61.5578747
  12.6716554  71.1571836  60.4252338  47.6880550  96.2860394  21.2564206
  46.8432760  96.6969585  21.0728073  48.0637312  96.1145782  20.3928804
  34.9292178   2.0939254  74.9433517  35.1893533   1.6241073  74.1509962
  35.6699333   1.9859027  75.5399275  96.3924457  36.8308145  16.2010204
  96.4436509  37.6592810  15.7243073  95.4702379  36.5800936  16.1471569
  38.0030704  86.4259529  42.2866583  37.5478220  87.2540474  42.1341896
  38.8877320  86.5739155  41.9524193  41.9718985   8.3392715  68.0935812
  41.9374401   7.9269504  67.2304296  41.5325443   7.7174949  68.6737490
  67.3335696  23.9066982  81.8724823  67.0947791  23.1342220  82.3848248
  67.6674677  23.5533809  81.0479164  38.2073636  35.3361129  85.0469017
  39.1227210  35.2936839  85.3235817  38.1309398  36.1793613  84.6004391
  67.9971863   4.6838378  54.2046213  67.9465199   5.4743480  54.7419930
  67.0844198   4.4434165  54.0455961  89.3021228  49.1789419   1.4160454
  88.4539677  48.7719805   1.5928089  89.9361827  48.6109621   1.8537628
  94.7924088  90.0993633  83.3696842  95.1163064  89.2200565  83.1743622
  94.6125828  90.4843712  82.5119781   0.7390574  97.7906322  67.4110985
   1.2850752  97.0344925  67.6263714   1.1006404  98.1207657  66.5886021
  24.6628261  81.0551262  60.7632017  23.9770126  80.3907204  60.8299065
  24.2071342  81.8400192  60.4590368 110.6921150   6.5445883  11.3882267
 111.0547044   6.1450130  12.1788609 111.2018801   7.3460085  11.2695038
  60.2318001  81.9955444  75.9278822  61.0078526  81.4759922  75.7180309
  60.3671598  82.2730350  76.8339252  91.4493037  15.5813598  63.9603233
  90.5751754  15.9228324  63.7718201  91.5034009  14.7698306  63.4556198
  79.0716887   2.2363662  62.3957634  78.9840651   1.3308238  62.6933289
  80.0132943   2.3586559  62.2746992  25.6958461 105.3871822  90.6854343
  25.0530314 104.6847248  90.7832813  25.2800322 106.0112000  90.0905132
  23.2299852  76.0908556  69.4489622  22.6402521  75.8859110  68.7233973
  22.7222133  75.8886194  70.2347755  12.9997135  20.6883716  74.3931055
  12.3355175  20.4199409  73.7582684  13.1059290  21.6281795  74.2457247
  81.6819621   7.9296302  82.1019459  82.1005202   7.0886897  81.9178963
  81.8377257   8.4519863  81.3151073  37.3811150  96.3012505  78.3562088
  37.8299809  96.8509483  78.9985323  36.9634652  95.6158257  78.8777351
  90.1933719  55.7755930   7.5247204  90.7237663  55.2981836   8.1626808
  90.4211809  56.6948206   7.6638424   1.6013459  12.1108229   8.1989491
   2.3489192  11.5420610   8.3829891   1.4209512  11.9757730   7.2686493
  91.0083462  59.9631388   9.1729366  90.0625493  59.8725874   9.0567600
  91.2409784  60.7323343   8.6528885  60.4761314  75.7338381  79.0337896
  60.4654646  75.7196426  79.9908257  59.8748064  75.0347042  78.7771606
 104.5444848  34.9804956   0.1241886 104.9699547  35.0786573   0.9759915
 105.0112750  35.5892927  -0.4482735  61.1438084  12.2178745  84.2971897
  61.6536690  11.7826461  83.6139202  61.6131354  13.0356693  84.4620228
  71.4306117   9.8402500  44.3357182  72.0235396  10.3936958  44.8440123
  72.0042110   9.2047023  43.9075899  56.8101358  84.1832161  70.4298687
  57.0892143  83.7452221  71.2339258  57.6217604  84.5078850  70.0398827
  29.9225307  92.9099655  79.7022390  30.5975723  93.2748318  80.2744484
  29.1169214  93.3521366  79.9700212  55.3352655  15.3396511  51.3974333
  56.1439324  14.9850749  51.0278845  54.9701155  15.8820342  50.6983519
  29.9085188  71.6181374  74.3075609  30.8484697  71.4471531  74.2484808
  29.7829866  72.4354649  73.8254261  59.8759080   0.9915256  26.8431473
  59.5882274   1.8451690  26.5194964  59.1939951   0.3842735  26.5559697
  43.3695091  10.8376693  29.6698236  44.3164624  10.8887672  29.7998238
  43.2116629   9.9291324  29.4131875  52.4417639  88.4321022  70.7967091
  51.9152164  88.0218410  71.4827585  52.4997616  87.7679348  70.1098680
  36.8735099  92.6406193  65.0979805  36.2733054  92.4327183  64.3819046
  37.7067471  92.8274536  64.6654940  30.3571749  99.0571117  45.4568386
  30.4049253  98.5564709  44.6424055  29.5588112  98.7454414  45.8831167
  91.1968613  35.3542804  65.2509165  90.3748799  35.3907775  64.7617865
  90.9612704  35.6316757  66.1362314  71.5874815  85.8889389  55.4642677
  72.0362377  85.5868053  54.6746063  70.7985783  85.3490257  55.5128479
  31.7176104  82.2240448  65.5587149  31.2232065  82.0642471  64.7548103
  31.0948205  82.6601791  66.1402225  14.0733075 105.4776001  87.7066898
  14.7343767 104.9763966  88.1841946  13.3308864 104.8788357  87.6259136
   2.1351302  77.6457310  66.6645241   2.3815580  77.3504066  67.5410461
   1.4835721  78.3302164  66.8167639   1.9746341  91.3535595  71.7830563
   2.1122175  90.7804871  72.5373030   1.0862470  91.1528015  71.4886141
  91.3910104  34.8880941  24.8429787  90.8641257  34.1757662  25.2052128
  92.2909416  34.6654970  25.0813210  39.2790627  93.4708118  74.1743660
  39.6248198  92.9461956  74.8964930  39.4162178  94.3772316  74.4497156
  60.2797414   2.3407268  65.5079508  60.5716754   2.7165412  66.3384771
  60.5201412   2.9945945  64.8515272  48.7665189  31.4906597  57.1113777
  48.0062557  32.0355319  56.9080400  49.5016957  31.9401740  56.6946220
  38.6720967  98.2003593  41.2441587  39.4209433  97.8191662  41.7025900
  39.0510893  98.8882065  40.6969357  84.0732671  13.6670970  51.2279034
  83.1915761  14.0153598  51.0953856  84.2025233  13.6967563  52.1758699
  79.3395663  17.3213386  74.3337107  79.2051602  18.2350444  74.0821028
  80.0904990  17.3442268  74.9268436  57.3685861  16.2391376  49.6957731
  58.3195830  16.2626361  49.5895433  57.0556618  15.7390785  48.9419508
  26.8569922  96.3572121  69.1701174  26.7775750  95.5104160  68.7309694
  27.7967167  96.5392780  69.1711569  45.5436325 106.0509682  63.3383465
  46.2410450 106.0751057  62.6831579  45.9642172 105.6993198  64.1229963
  92.4781682  49.5466215   1.7474186  91.8371464  48.8406069   1.8303120
  92.0023932  50.3342707   2.0110047  31.6397977  97.2442245  74.8232508
  31.5259457  96.5202522  74.2075109  30.7604575  97.6062298  74.9325418
  42.5556768   8.7597465  43.7150240  43.2285596   9.3831539  43.9885521
  43.0301441   8.1041812  43.2038069  52.2665597  12.1818351  85.0530243
  52.5093354  13.0983638  85.1843834  53.0130959  11.8001270  84.5912647
  31.8235019  75.7033331   1.8948185  31.7749503  76.2915594   1.1412537
  31.0523036  75.9207613   2.4184715  87.6733113  19.3075275  38.9328337
  87.7656365  18.3762931  38.7315345  88.0538321  19.7548389  38.1769609
  44.1192497   4.2545986  88.4257126  43.9354266   4.5771980  87.5434494
  44.7775228   3.5714054  88.2986069  66.9040633   6.6973876  72.3338938
  66.7415930   5.7913970  72.0711946  66.5318538   6.7621707  73.2133818
  53.5187567   3.9463901  79.7102928  53.9231265   3.0934333  79.5516062
  53.3082152   3.9416503  80.6440353  52.2546053  98.8792801  58.0309200
  52.8787804  98.1563377  58.0941010  51.5845966  98.6749363  58.6832714
  39.5411205  87.5412846  58.7529421  39.0817142  88.3084202  59.0945292
  39.0284491  87.2752953  57.9896259  41.6010523 106.4822102  50.1938009
  41.1613798 105.9433651  50.8514977  40.8958483 106.7846203  49.6215487
  55.1467145   3.3411693  39.4162321  54.8604477   2.9151248  38.6082888
  54.8246861   2.7712631  40.1146126  68.7655021   2.3586845  46.9377851
  69.3363810   1.5951824  46.8517971  67.8817726   2.0120143  46.8150187
  53.4090865   4.7856235  84.9917603  52.6773537   4.1732025  85.0675011
  53.0317713   5.6377983  85.2100849   4.0693715  23.3179473  78.9436340
   4.5198538  22.5756645  78.5407448   4.7210696  24.0190029  78.9497328
  52.1184600  30.0909328  86.4415932  52.3020364  29.5640659  85.6638145
  51.9693781  30.9737968  86.1031151   6.9062379  70.3275949  12.9794609
   6.6959956  69.7770101  13.7337029   7.6203969  70.8877546  13.2834828
  78.0549765  83.6206532  69.1703892  77.2708368  83.8123512  68.6559868
  77.9674387  84.1654587  69.9525404  23.5148668  92.0837688  91.5461349
  24.0042186  91.2612724  91.5624905  23.1791544  92.1804810  92.4373055
  59.3093157  89.3961716  63.2876348  59.2970991  88.4644222  63.5065317
  59.8700237  89.7916698  63.9550304  82.8592349  15.3547000  67.0046759
  83.7380935  15.0117206  67.1665621  82.8460933  16.2007141  67.4522400
  61.5733051  74.9650669  71.8983507  61.5200615  75.3808498  71.0378122
  62.3375797  75.3667736  72.3115683  97.1425916  41.5774440  88.8892555
  97.8561736  41.4931487  88.2568550  96.7410374  40.7089137  88.9144516
  68.9828182   0.6338119  57.4764490  68.6496735   1.4339160  57.0701361
  69.1605855   0.8820056  58.3836603   7.2434809   6.1753368  73.9008951
   6.6454508   5.9788131  73.1798077   8.0934908   6.3019657  73.4793615
 106.7693807  68.0630476  10.7889664 106.3908221  68.1466562  11.6641438
 107.4429800  68.7421877  10.7534897  31.1745524  96.8069458  91.8228626
  31.2366247  95.8567142  91.9199848  30.6251693  97.0871544  92.5549126
  93.3077861  21.9275076  24.9013626  92.6236166  22.2998316  24.3450176
  93.5124160  22.6225120  25.5269253  39.1624832  91.4696217  47.1662092
  40.0988340  91.4801311  46.9677973  39.1202497  91.4713669  48.1224728
  45.5693884   6.2616920  42.0453453  45.1651675   5.7365608  41.3546419
  45.2018202   7.1374797  41.9265318  84.1620971   1.9603156  36.4469886
  84.9540759   2.0664215  35.9199786  83.6326934   2.7308845  36.2415671
  26.0189772  91.6000462  44.6002722  26.2161136  90.6660652  44.5292759
  26.6005659  92.0166111  43.9643049  63.1741882  17.5884532  89.9732399
  62.4593449  18.2142543  89.8565769  62.7506138  16.7309665  89.9341488
  72.2528982  94.4090652  71.9198370  71.9531870  95.2432251  71.5584803
  71.4571857  93.8831139  72.0001221  42.0166162  64.0125162  29.1663372
  41.7555717  64.9333746  29.1766560  42.1991590  63.8050253  30.0827706
  86.7806531  10.7155418  71.1684704  86.2128974  11.1631393  71.7957973
  86.2718774   9.9561500  70.8843851  27.1336794  86.8643665  39.3967938
  27.8141570  86.8034363  40.0672150  27.2070813  87.7579308  39.0615392
  30.3013468 106.2768745  90.7616615  30.4607916 107.1822643  90.4950619
  31.1662149 105.8669758  90.7468033  98.5261585  33.3986074   1.1792862
  98.6276318  32.7749617   1.8983090  98.3297946  32.8547747   0.4164517
  69.5747543   5.7803440  71.5927553  68.6992646   6.1573600  71.6799641
  69.9015952   6.1235809  70.7611370  13.1173933  55.7227421  61.2604952
  13.3780158  56.6234684  61.0681295  12.1927178  55.7868004  61.4994574
  94.8488639  26.6040397  50.9100962  95.7569848  26.4630723  51.1778212
  94.9145077  27.0665932  50.0746536 103.1828319  20.6541657  91.0151863
 104.0070049  20.4176450  90.5897141 103.4465133  21.0374594  91.8517208
 111.4609966  56.4870644  30.8860350 111.3303016  56.8312120  31.7696166
 112.3430560  56.1156368  30.9017038   9.3561292  80.0056362  52.4548292
   9.5254076  79.4097900  51.7250729   8.4837300  79.7627687  52.7649307
   0.2807793  35.7569814  65.1236582   1.1403459  35.3516316  65.2379751
   0.3805453  36.3170218  64.3538284  11.1607206   6.3349485  68.5099459
  11.7635214   6.7417979  69.1323137  11.3948369   6.7178726  67.6644945
 100.6140934  47.9875660  46.2742901 101.2734221  48.4635019  46.7792654
 100.5322812  48.4835052  45.4596853  91.6625760  69.7177315  55.8607483
  91.6194771  68.7658405  55.9517384  92.3735355  69.9821949  56.4445543
  91.9703530  44.6836758  66.0967064  92.2529243  44.1441584  66.8351555
  92.3296092  45.5512047  66.2825918 110.0397496  75.8750248  72.1273136
 109.7713812  75.4083681  72.9187965 109.7396444  76.7733860  72.2655630
 107.9675905  42.3215008  80.7260513 108.6141421  41.6423988  80.9184647
 108.1397025  42.5652599  79.8165512  12.1090007  52.8241873  54.6951914
  12.7620471  53.1810093  55.2972221  12.3491371  53.1833267  53.8410330
  36.7294931  43.6494446  65.6214619  37.4200511  44.1739321  66.0267687
  36.9452715  42.7468920  65.8561230   9.5231169  45.1094532  54.6623325
  10.4594922  45.0872517  54.4649982   9.3430686  46.0271215  54.8665285
  46.0661840  14.8942745  53.6257362  46.7019606  15.6083167  53.5791779
  46.5895557  14.1209030  53.8359928  18.8103676  24.6558261  54.0204668
  19.5530069  24.2794871  54.4927883  18.4339559  23.9187241  53.5396051
 104.2830865  47.5620174  69.2708445 104.1696440  47.2200203  68.3840513
 103.9654814  46.8612242  69.8402643   4.8197743  51.0079956  75.1721907
   4.0432227  51.0216188  74.6127129   5.5518544  51.1360741  74.5689583
   0.9087580  12.1169031  16.1439669   0.1538897  11.8136716  16.6484034
   1.1417995  11.3717031  15.5902529 108.8411121  55.6767559  67.5569344
 108.7724446  55.3561974  68.4562445 107.9368119  55.8480787  67.2940254
  95.2606831  17.2127998  45.7907391  95.5726777  16.3399279  46.0294580
  94.8748086  17.0999575  44.9220657  94.4271158  20.8601737  38.1720090
  93.7879394  20.1613569  38.3110905  95.2733169  20.4128218  38.1647873
   0.5613910  18.1355762  43.4509897   0.1005284  18.4949493  44.2090750
   1.3969782  17.8280377  43.8023424  19.6074128  54.8757935  73.5893393
  19.6715152  53.9697599  73.2872963  19.4147635  55.3789520  72.7981663
   3.7660068  39.8435903  38.9944267   3.2281560  40.5568933  38.6506987
   3.4480342  39.7129059  39.8877621 108.6415137   3.7263128  58.9262056
 109.2198540   2.9667836  58.8564157 108.4509756   3.9663947  58.0194044
  20.2287960  35.1929855  56.3440180  19.5070732  35.8023357  56.4990711
  20.9735584  35.5822372  56.8023252 102.1464883  22.3003626  34.8878074
 102.7663051  22.7554178  35.4578805 102.2141586  22.7557230  34.0485835
  94.5625661  37.6969385  63.3369255  94.2266069  38.4924221  62.9239225
  95.0521336  37.2552466  62.6430464  14.0344846  49.6751976  56.4972544
  13.2814574  49.6163607  55.9092712  14.7683752  49.3425369  55.9805584
  13.5532367  47.3618793  44.2255545  13.4476018  46.6196251  43.6304665
  14.1108513  47.9751825  43.7468576   4.4233623  33.1456828  66.5940332
   5.1498425  33.0486703  65.9783649   4.8404726  33.1664634  67.4553204
  21.6085362  39.8717761  45.9545374  22.2922349  40.0072861  45.2984715
  20.9017944  39.4367051  45.4776096 104.6169005  38.6499333  58.9445257
 105.0437425  38.8147306  58.1037664 103.9023416  38.0479860  58.7364531
 109.9451975  61.1078691  65.4535818 110.8989422  61.1819935  65.4868841
 109.6786360  61.0331059  66.3698721  15.7426918  64.8419094  58.4112453
  15.1913869  65.0345421  59.1696548  16.6308129  64.7983599  58.7656116
  46.6589594  19.8422682  52.6827240  46.9737387  20.4260135  51.9925165
  47.3499727  19.1864026  52.7753305 109.8708694  57.3598242  39.8988724
 109.6960928  56.6117525  39.3278456 110.6818603  57.7370548  39.5579529
 103.7056868  51.3900566  39.5335007 103.7789302  50.8803034  38.7266421
 103.9393215  50.7741356  40.2279711 110.8122569  26.7602015  73.5631704
 111.0941300  27.6737857  73.5168648 110.2150796  26.7313910  74.3106842
 105.4774629  43.0700779  70.6535530 106.2842105  43.0786610  70.1384640
 105.7618616  42.8490210  71.5403938  16.8187523  28.4226727  88.0285454
  17.2660279  28.0339456  87.2768402  17.4754667  28.4214187  88.7249374
  14.0450239  33.0634713  55.2702332  14.4453025  32.2260427  55.5041599
  14.7866738  33.6479998  55.1136637 102.4376796  40.0394583  68.2282591
 101.5168713  40.0224304  68.4891272 102.7543877  39.1545534  68.4095573
 111.2123810  52.9840040  55.1069880 111.0853219  53.9324331  55.1309824
 110.8877712  52.7205706  54.2459059  21.2512875  39.2632198  42.9042864
  20.8322573  38.5983753  42.3578215  22.0688725  39.4663095  42.4498129
 103.7409066   5.7624339  53.2430983 104.5930480   6.1363887  53.0189562
 103.1452226   6.5116500  53.2512712  19.9682724  34.0720630  40.6957054
  20.2681446  33.2527113  41.0893679  20.7702374  34.5715046  40.5419445
   4.9537721  44.0869999  35.9358406   4.1401085  43.8706303  36.3912177
   5.6391692  43.9417744  36.5880466  29.0775586 104.1644080   4.2409813
  28.4146274 103.9529498   4.8982823  28.8299299 105.0320990   3.9215767
  26.6712284  58.3537436  41.6793966  27.1859717  58.4905672  42.4747276
  27.3231316  58.2720661  40.9832764   5.8002621  38.5517621  53.9249134
   5.9449440  38.0739474  53.1082201   5.3578407  37.9229903  54.4951248
 104.3406056  43.6582088  48.4079313 103.4061138  43.4561062  48.4538698
 104.5189302  44.1502190  49.2094040   0.4020536  34.2602038  70.4129171
  -0.0984321  33.5003161  70.1157379   1.3165236  34.0140796  70.2736330
 111.0924755  43.0902719  38.4982181 111.0811390  43.2347488  39.4443822
 110.9305248  43.9553547  38.1218743   2.8206763  14.0453291  46.4457130
   2.2392486  14.3103671  45.7330227   3.5129553  14.7063696  46.4484501
 101.0714756  40.7564020  55.5316019 101.3325976  41.6653299  55.3836155
 100.2147172  40.6818771  55.1113129  98.6187361  28.8464808  45.6626129
  98.4512423  29.2401028  44.8063183  98.2420097  27.9687238  45.6005478
   6.4640534  20.6260085  55.0493956   6.9172633  19.8106945  54.8346949
   7.0748419  21.3153672  54.7887135 110.9943478  29.0598321  50.4277086
 111.8440722  28.6545348  50.6007195 110.8824466  29.6934223  51.1364222
  93.8481817  97.0954794  23.3167839  94.2078970  97.9342986  23.6052585
  92.9687808  97.3070193  23.0035162   0.8224285  28.3573365  56.3151693
   0.8769533  28.8115621  57.1559668   1.6568628  27.8946853  56.2383270
  76.6070794  27.5967431  90.7365131  76.3342331  28.3657360  91.2369442
  75.9203337  26.9498158  90.8980656 112.8649137 103.4064654  64.5398331
 112.2366402 104.1274992  64.4996643 113.2102368 103.4391019  65.4319763
  11.2292111  60.0130272  76.5914583  12.1807849  59.9540472  76.6766596
  11.0840571  60.8004093  76.0668755   9.2008340  14.7019231  38.0468822
   9.2077816  14.6716869  37.0901847  10.1258206  14.7082281  38.2930374
 106.2772934  44.7047710  80.2677250 105.6127302  44.2845392  79.7218370
 106.4421461  44.0764141  80.9707260  96.8548284  19.0547538  62.3874283
  96.7835222  19.6697068  63.1174850  97.7395330  18.6968744  62.4612617
  30.4300315  82.1935184   8.2101166  30.7729722  82.9628952   7.7554905
  31.1794061  81.6019137   8.2784855 101.0005282  33.0401897  66.0818481
 100.5503534  33.8647723  65.8984375 100.4607259  32.3731232  65.6577396
  11.9418931  37.1027350  35.8932996  11.5314221  36.2991190  36.2125921
  12.4296236  37.4378300  36.6456723  34.9653006  21.6723156  79.5524979
  35.1124001  21.4311290  78.6379385  34.3308425  21.0300064  79.8705196
  13.6847293  91.9935703   6.4986330  13.9553463  91.9486141   7.4156809
  14.4446659  91.6790104   6.0089594   5.8013815  49.2852879  58.3765745
   5.4385489  48.5721636  57.8511810   5.4568869  49.1336441  59.2566681
  30.1727247  55.1815128  65.5602074  30.6799841  54.5397854  66.0573101
  29.8412848  54.6930695  64.8066807   2.4327976  17.0373273  49.2495012
   3.0130473  17.7512264  49.5138693   2.3157673  17.1601617  48.3074570
  19.2298949  41.3029814  33.5754442  18.7993491  40.5518627  33.1671715
  18.8996577  41.3091707  34.4738531  24.8247170  67.1263218  71.5523338
  24.6009755  67.9729271  71.1657763  24.0194416  66.6129732  71.4872217
  91.1931203  64.9100924  73.1553984  91.6797994  65.0553370  72.3440552
  91.8674730  64.7281265  73.8098955  87.9311632  84.7665596  54.4224977
  87.5770520  85.6548977  54.3814182  87.3985480  84.3268108  55.0852060
   9.8627806  62.4335575  80.2237225   9.3409657  62.1846437  79.4608402
  10.5973625  61.8198633  80.2220154  14.2984819  57.0382547  24.1802406
  13.3748329  56.8652630  23.9980888  14.6627593  56.1820459  24.4048381
  91.9176076  68.4364843  66.2466145  92.3933099  67.8452110  65.6632328
  90.9946273  68.2403183  66.0857964   8.7839514  42.5474691  55.6877089
   9.1093379  42.4794292  56.5853310   9.5416772  42.8371048  55.1795769
  21.8090963  56.7210960  21.5528798  22.6286316  56.2335396  21.4699006
  21.5229774  56.8639278  20.6506777  26.6025710  55.4196262  48.5417223
  26.6105938  54.4635201  48.5867739  26.4329481  55.6145620  47.6200628
  14.2442131 100.8649921  53.9458275  13.7471521 100.5422497  54.6974945
  13.7857878 100.5088425  53.1847572  93.4152709  50.9497023  67.4382401
  92.8624748  51.6788960  67.7191734  92.9168723  50.1669741  67.6731205
 110.4957221  93.8050473  88.5084248 110.8034680  94.6851457  88.7251091
 110.0660441  93.9039732  87.6588249 108.5443868  81.0904026  51.3391924
 108.0182551  81.5239048  52.0111227 108.9042436  80.3191853  51.7773247
 101.6181909  25.9182286  60.3959417 100.8529638  26.0886574  60.9451342
 101.3496457  26.1926913  59.5191383  23.7897825  87.9440022  42.2031498
  23.7707376  88.3646011  41.3435221  24.1394281  87.0691395  42.0340490
  46.4476967  71.2170029  88.7389946  45.5121136  71.0624599  88.6084747
  46.6540575  70.7617426  89.5553207  10.3073490  55.5542850  81.7632866
  10.8834326  55.6001663  81.0002327  10.7676029  54.9815464  82.3767757
 103.1095885  58.8892841  51.2859392 104.0473686  59.0279913  51.4184570
 103.0544125  58.3849573  50.4742479  16.0448635  54.4234085  37.7978921
  16.6386628  55.0265646  38.2449198  16.6192949  53.8698483  37.2688985
  84.2671846  50.4802275  78.3458710  83.3498715  50.5187082  78.0751562
  84.2747734  49.8656273  79.0796566  99.0873943  43.6494446  47.4124432
  99.4243561  42.7880001  47.6586246  99.8680423  44.1969776  47.3285961
  67.0845182   4.3490536   8.8165676  66.4076854   4.2573721   8.1459534
  67.1740677   5.2941782   8.9388477  15.9668767  72.8115940  66.5167952
  16.2701285  72.6456785  65.6241941  15.5971301  71.9764566  66.8032598
  14.4113529  47.0534515  84.2286682  13.9306319  47.8106451  83.8943005
  15.1631141  47.4299812  84.6861744  31.4468884  18.5694993  68.2628775
  31.9279408  17.7773798  68.5023928  31.8193412  19.2534089  68.8194513
  16.6400278  58.7843847  42.1209621  16.6418672  59.6960974  41.8294048
  15.9929657  58.3552170  41.5611839  19.9162292  38.6133385  58.2368183
  19.3402553  38.0448914  57.7255917  20.0650167  38.1332660  59.0514517
   2.4969029  39.7964311  49.3753338   2.5500754  40.0856304  48.4644175
   1.5583214  39.7481132  49.5568895  94.4391523  47.2450686  45.9838152
  93.7190066  46.9462061  46.5390635  95.1581989  47.4117947  46.5932465
  16.7020333  61.8315220  41.6591740  16.4519095  62.7547741  41.6948509
  17.0077884  61.7007208  40.7615995  85.4884981  85.8885670  78.2083130
  84.7034262  85.6069469  78.6779737  85.2758621  85.7550049  77.2846365
  10.2781165  43.2925749  23.4518266  10.8003736  43.0938005  22.6746750
  10.4479718  44.2186975  23.6240911   3.6872524  26.7360616  62.5572348
   2.8668031  26.3654375  62.8823996   3.8179764  27.5257659  63.0821276
  17.6925468  82.8530884  57.2018194  18.1012511  82.0808983  56.8107748
  18.1747532  83.5925674  56.8318462  65.1227237  99.9787838  14.5708859
  65.4726172  99.1025860  14.7323811  64.7647429  99.9340613  13.6842739
  34.9593616  66.5991354  48.9065886  35.4355264  66.1822414  49.6247101
  35.1854038  66.0789871  48.1354952  14.1346955  69.8876667  54.7464561
  13.4729838  70.4346514  55.1697493  13.9168262  68.9956856  55.0168943
  28.2113266  57.7979183  39.4123602  28.1873298  58.6905384  39.0675497
  27.4660873  57.3615646  38.9995122  17.7958870 102.8968716  14.2004561
  16.8435216 102.9611111  14.2719018  17.9420447 102.3645973  13.4184361
  96.7408262  63.6756086  34.4985509  97.6093601  63.5106134  34.8655081
  96.7120455  63.1441736  33.7029529 107.6775043  49.8563385  41.3027287
 108.2290827  50.6199884  41.1329269 107.9945002  49.5129013  42.1380711
   0.1835850  59.8678541  32.7800989  -0.2058926  60.6422710  33.1860709
   0.4473262  60.1615810  31.9080925  95.0517891  81.7465973  40.2153397
  95.2882861  81.7430496  41.1428547  94.4078742  81.0435581  40.1296616
  35.4651117  57.5298929  53.1617403  35.8703947  57.2237492  52.3504162
  34.7417736  58.0863571  52.8730154 109.3795936  33.8141322  45.8033562
 109.0057473  33.2390976  45.1356697 110.3256778  33.7484145  45.6735945
   6.4873481 102.0961475  41.0724831   6.8745720 101.9633293  41.9377279
   6.7512763 101.3247490  40.5709791  88.7848829  57.3683548  72.5685787
  88.8700055  56.4744473  72.9001141  89.0161751  57.3032045  71.6420317
   1.5552630  83.3006573  71.7678928   0.9503122  84.0410423  71.8135786
   1.3964209  82.8114128  72.5751352  27.5895023  57.5109720  33.9477444
  28.4947681  57.3826361  33.6644506  27.1958447  56.6401529  33.8935804
 107.0233624  29.1193008  81.4378452 107.6468258  28.4217191  81.2355995
 107.5702338  29.8812366  81.6292000   8.9408284  99.6346092  65.5253983
   9.5304632  99.6194553  64.7715187   9.3990999  99.1308784  66.1980629
  21.6973090  32.1223378  72.4790287  22.4897408  32.6021647  72.2380972
  21.8342280  31.8780112  73.3943367  29.9559259  84.1408157  67.0274878
  29.3641400  83.7514591  67.6712418  29.4907331  84.9157810  66.7124414
   6.2810266  54.2343569  32.9250503   6.7057145  53.4156513  32.6689410
   5.8123010  54.5169020  32.1397495  30.7758016  98.7353165   0.7380211
  30.7621349  99.6464617   1.0310471  30.9773410  98.7871916  -0.1962746
  25.9822702  48.8987255  90.1247120  26.7777658  48.3665276  90.1382160
  25.4173303  48.5018969  90.7877350  85.2211522  69.9251127  60.8204508
  84.4331263  69.4473076  61.0791969  85.9113358  69.5699692  61.3805819
  12.8639555  68.0939865  36.1140871  12.4105036  68.0772448  35.2712750
  13.4974718  68.8067293  36.0311007 101.1400746  45.1400137  46.3655567
 100.9457611  45.9315920  45.8636856 102.0023201  44.8646498  46.0542059
  19.2727959  78.5032463  27.8617144  18.4488940  78.2855654  27.4257851
  19.6228540  79.2386198  27.3588037   2.6896942  39.2640066  28.9198065
   2.2398593  39.8999572  29.4760871   2.0682096  39.0800357  28.2154298
  26.6380286  66.6047478  31.5248013  25.7519388  66.9665289  31.5109682
  26.5323591  65.7261944  31.8897700   4.7635069  41.4135695  47.4925900
   4.0487972  40.9556484  47.0501709   5.4888463  41.3849449  46.8686533
   5.4574978  58.3254480  69.5121670   5.3761905  58.6928368  70.3923082
   5.4405570  59.0868330  68.9323044  47.6549244  49.6277237  30.2732420
  48.1867647  49.7100735  31.0648203  46.8557358  49.1898394  30.5661273
  30.7911301  39.8029065   6.3597006  30.2459550  40.5876827   6.4157802
  30.4945874  39.3616462   5.5637205 108.3493577  87.9390526  77.7521372
 107.5807922  88.3792686  77.3891640 108.9907764  88.6389542  77.8744411
  28.7883687  38.0725050  32.8017402  29.0699744  38.5835242  32.0429325
  27.9779267  37.6494145  32.5181770  97.9216506  16.5396006   4.0944492
  97.9384948  15.5851490   4.1649449  98.8031913  16.7739231   3.8042557
 108.0624030  65.1714706  40.4266167 107.7073352  65.2707148  41.3099718
 108.2977430  66.0606861  40.1617765  19.5856905  21.1971855  49.6073675
  19.6686685  21.6098833  48.7477016  19.8989081  21.8602300  50.2225924
  98.4908198  51.1326027  31.0581827  98.9214168  50.7670259  31.8309522
  99.0847920  51.8194771  30.7554841  67.2339369  97.9768260   3.4706413
  66.9935323  97.5868113   2.6302063  67.9244305  98.6036856   3.2550156
 108.8807188  21.5710306  66.7083597 109.8043849  21.8166494  66.6559792
 108.8922574  20.6244159  66.8498564  40.1842022 102.2718525  38.2946706
  39.2453432 102.4370575  38.2081652  40.4647541 102.0180798  37.4153996
  10.9830761  36.2205100  61.4010763  10.6006181  35.4492688  60.9825706
  10.9590125  36.0217786  62.3371077  81.9906805  20.7595229  22.9650855
  82.3700236  20.2419901  22.2548103  82.7443646  21.1593342  23.3990693
  40.4461193  74.6471310  42.0502853  40.6789017  73.7600088  42.3242617
  41.2847710  75.1023197  41.9748211  99.2245482  67.0844030  79.6780014
  98.8650463  66.2471485  79.9712515  99.6621023  66.8808222  78.8513660
 106.1342643  54.4259739  84.6390438 105.2102463  54.5522499  84.4234657
 106.4744537  55.3119993  84.7633934 102.5005279   1.3359894  92.0234394
 101.8741856   1.5936716  92.6998520 103.0850659   2.0892397  91.9388199
   3.0107439  31.9814777  48.0485106   3.3992922  31.1068487  48.0316448
   3.7604168  32.5766444  48.0482435  71.4705418  77.4873590  88.3956528
  72.0583676  77.4077415  89.1468906  71.7730235  76.8172073  87.7827644
  14.3176329  65.2145147  60.7653666  13.6448300  65.7878971  60.3982162
  14.1707468  65.2476025  61.7106485  31.4413714  77.1365833  22.8859401
  31.8125033  76.3830614  23.3449578  32.1889567  77.5407267  22.4454641
 109.3612392  64.0771532  74.3863344 109.8136957  63.4039307  74.8945522
 109.7355293  64.9022865  74.6950293  15.4942584  55.1884031  50.7641363
  15.9642637  55.0297165  49.9455118  16.1128080  54.9335384  51.4487314
  89.1278838  84.9896908  63.8585854  88.2462357  85.2241135  64.1483641
  88.9879535  84.4255257  63.0980825   6.4079201  63.5833549  58.7432194
   6.2276459  64.4643021  59.0713453   6.5566355  63.7029171  57.8052330
  14.3156230  61.2367201  71.6090631  15.0033808  60.7825994  72.0958900
  14.7471082  61.5378523  70.8094549   1.4221595  17.3020172  77.9081869
   0.6158385  16.9952095  78.3228493   1.7024411  18.0415130  78.4474611
 102.1746097  48.5179758  64.7570848 101.5433131  47.8858852  64.4133425
 102.9599892  48.3849192  64.2263222  24.4718575  58.9894438  50.2914858
  25.1864696  58.3952570  50.0623512  24.4381332  59.6141148  49.5669985
 101.2646793  70.9810352  83.2160759 101.1843525  70.4916763  82.3973560
 101.9436298  71.6324234  83.0401421  91.5371655  56.3873482  57.8422165
  91.6530655  56.3358688  56.8934536  91.2712620  55.5044889  58.0992794
  23.6115909  15.8474207  56.8391657  22.7351832  15.8243489  56.4549637
  24.1904426  15.5610418  56.1326599  97.3580347  35.8613253  52.0710039
  96.6131400  36.4158750  52.3030376  97.4253581  35.9366107  51.1191463
  91.9429587  43.3108902  58.7806463  92.7834319  43.0382872  59.1487837
  92.1668957  44.0046787  58.1603718  24.9971032  80.9458065  63.4298372
  24.5191312  81.7597771  63.5886431  24.9343657  80.8118153  62.4841404
  20.7123947  72.3167133  47.6549959  20.4535890  72.8462648  48.4092045
  21.6531801  72.1816826  47.7686644  26.2442994  32.9112101  50.2539825
  26.0219979  32.9595518  51.1837578  26.6158342  33.7698340  50.0515938
  84.6875854  40.1535780   7.6413357  84.4465293  40.4230959   6.7550671
  85.6371583  40.2688486   7.6768028  18.1704664  56.5882349  48.7621355
  18.9537001  56.1910486  48.3813190  17.9859424  56.0581684  49.5375109
  26.7656231  38.0606699  35.3389502  26.3443375  38.7617135  35.8362293
  27.5025868  38.4868884  34.9013948 106.3533358  73.2537413  34.3417406
 106.2295811  72.3045778  34.3431473 106.1018650  73.5293722  35.2232289
  98.1249951  98.0957985  50.5549955  98.8496672  98.3717632  51.1161804
  98.1941329  97.1415329  50.5264521   7.7690393  79.4518471  72.8419018
   7.4274582  78.8599396  72.1716785   8.6983943  79.5416355  72.6310253
 107.9073255  22.1142960  62.3097944 108.4689762  21.3393807  62.3267698
 108.2214610  22.6537251  63.0354452   5.2241188  54.5086956  75.2093029
   6.0187083  54.0606356  75.4993057   5.2253938  55.3351688  75.6921768
 103.3464818  77.2671032  43.4934568 103.0742906  77.5946522  44.3506956
 102.8259514  76.4743662  43.3636427  44.8965120  72.8279495  33.4538031
  45.1948786  73.7368727  33.4210420  45.1082039  72.4750757  32.5895715
  12.8436494  48.1155157  66.9920206  13.3375812  48.5915136  66.3244247
  13.0567586  47.1953058  66.8369913   1.5480340  36.5687346  58.4449387
   1.6351072  36.9159770  59.3326759   2.3562995  36.0769367  58.2997799
  38.6382484  41.4186573  67.2058773  38.8508511  40.4854488  67.2183657
  37.6891708  41.4497232  67.3263788  30.7710791  25.4595995  26.6040969
  31.5856075  25.9619880  26.5845084  30.3497076  25.7183886  27.4236727
  12.7334571  39.9925971  60.8452559  12.1804452  39.6766543  61.5598106
  12.7411318  39.2742157  60.2127171  18.9910805  75.1797152  72.4909544
  19.9471641  75.1637220  72.4475908  18.7260449  75.7093525  71.7389774
  16.6185927  64.5409822  62.2826290  16.1467063  64.8496914  61.5091610
  15.9383070  64.1755056  62.8482008 109.6803366  44.5012665  53.0857563
 109.4216002  44.9183464  53.9075422 109.2170499  43.6636496  53.0860281
  92.0930670  67.8937292  48.2934475  92.4884294  67.7797890  49.1577005
  91.5882872  67.0925808  48.1534719   4.9483767  52.7604008  53.4109306
   5.3892845  53.4559727  52.9230642   4.3150327  53.2193089  53.9627552
   3.3878690  63.9065695  70.2019024   3.5117808  64.1807604  69.2932224
   3.7546495  64.6227646  70.7203293  32.8879285  79.4436884  66.2326431
  31.9745684  79.6800423  66.3943243  32.9267144  79.2665005  65.2927828
 101.5750967  61.6196632  90.8582401 101.4608882  62.5672388  90.7855511
 101.5672241  61.3073587  89.9534607  82.8483747  52.5128841  50.0402164
  83.2407187  51.9611120  49.3635750  83.4131311  53.2848501  50.0770044
  36.8151379  59.0747833  49.5888710  37.0590901  59.4073057  50.4526711
  37.6502180  58.9003706  49.1547585  36.2949872  93.7519455  43.6257458
  35.7061982  93.0166912  43.7959146  36.8311739  93.8172817  44.4159794
 102.9242168  11.1485803  66.5636969 103.6694305  11.5400314  66.1080074
 103.2465826  10.9798563  67.4490452  20.1802754  59.6148682  40.1184368
  21.0646248  59.9783087  40.0729609  19.7839594  60.0433302  40.8771086
 111.1401497  61.8360853  84.7727013 110.2405043  62.1511078  84.8600674
 111.0616462  61.0220814  84.2752457  94.9139391  78.2405281  76.1516523
  95.1394139  79.0636921  76.5850019  95.7356547  77.7502441  76.1263752
  21.5598011  41.4383030  51.2512016  21.8367124  41.7178488  50.3786135
  21.0630679  42.1811295  51.5942764  36.3215113  67.4656677  45.2877522
  37.0471787  67.1822453  44.7315931  36.0925198  66.6883945  45.7973003
 106.9970654  66.4122152  82.9455376 106.4467548  65.6406593  82.8110409
 106.4534573  67.1467495  82.6606274 111.7041783  61.3335848  48.9539194
 111.2062474  61.8446016  48.3158302 111.0398553  60.9636116  49.5353222
  24.7160530  43.3719063  64.9099970  24.3167830  43.1054878  65.7381535
  24.7288227  44.3283033  64.9469948  17.4533081  74.7492361  47.3317003
  17.3486376  75.4068756  48.0192995  18.3827198  74.7850084  47.1055460
  25.7586145  39.7469091  65.5832434  24.8122501  39.8314238  65.4671335
  26.1119151  40.5865574  65.2893066  17.0252502  82.6530170  65.0455046
  16.3193381  83.2121754  64.7210646  17.5093269  82.3983479  64.2599821
  97.0410036  53.9299726  72.5276470  97.4110912  54.6119595  73.0881453
  97.7867244  53.3732367  72.3036432  97.1183370  78.7991858  52.7043772
  98.0611549  78.9555597  52.7579784  96.7231606  79.5895958  53.0722427
  25.8528757  65.1619196  63.8637209  25.9328461  65.9910631  63.3921719
  26.1745596  64.5039129  63.2474613  31.7458248  57.3373365  56.3163996
  32.3938274  57.8421688  55.8250046  31.9575453  57.5052643  57.2346592
  33.7053609  63.1501579  53.4099531  33.0116296  62.5490379  53.6812878
  33.3098578  63.6732531  52.7126837   8.2190651  35.9619141  45.8373785
   8.5333174  35.9773445  46.7413902   7.2962767  36.2083435  45.9003496
  32.6819825  15.0461102  64.3998480  33.4552097  14.5772505  64.0859652
  31.9841146  14.7870290  63.7981081  20.9191728  86.9672775  55.5761433
  21.3322830  87.6874924  56.0524416  21.6267776  86.5875721  55.0552320
  39.7414899  62.8632784  49.6161747  40.3255796  62.3371601  49.0700293
  39.6008873  63.6653042  49.1129637 103.6617617  49.7484159  71.4419270
 104.1539369  49.3868685  70.7048512 103.8898091  50.6780243  71.4492607
  44.8626305  42.3725683   4.8048603  44.1983487  41.9484312   5.3480637
  44.6461178  42.1073896   3.9109718 105.4788189  74.6902275  60.5184746
 105.0016896  74.3406391  61.2710476 105.9824316  73.9464855  60.1876402
   1.5331309  42.6844931  45.8066130   1.3872665  43.3860159  45.1719284
   0.6961721  42.5962210  46.2626171  12.6622355  74.9800587  61.2572289
  13.6080444  75.0438547  61.3899231  12.4743307  75.6132460  60.5644083
  48.9395332  71.4446020  67.0799255  48.8011694  71.0279751  67.9305220
  49.0349483  70.7144976  66.4683104 104.1665374  23.5393167  38.5062432
 104.8532610  22.8781962  38.5932112 103.7175791  23.5309505  39.3515825
  35.6371856  47.9695654  64.0224981  36.4734507  47.8910255  63.5634470
  35.1517868  48.6277151  63.5250425 105.9214185  27.0065904  18.9693415
 106.2869702  26.7302942  18.1289458 105.1124863  27.4639916  18.7398982
  26.1410451  37.3149681  63.4517908  26.3102674  37.2696495  62.5107574
  25.2042913  37.5002646  63.5180426  94.8547266  86.0270023  76.5824747
  94.9222504  86.9811153  76.6188860  95.2777909  85.7260799  77.3866510
   9.4015390  64.5123911  69.3208408   9.5681298  63.5757971  69.4270039
   8.7584126  64.5626211  68.6136675 109.2734881  62.6887894  63.0425167
 108.3880739  62.8198338  63.3817816 109.6394698  61.9942617  63.5901642
  10.9045541  67.9553080  53.4469843  10.4874909  68.7935925  53.2480574
  10.5682302  67.3563147  52.7804089 109.5778300  86.9896126  31.3988686
 109.2647169  86.4526176  30.6709790 109.0851353  86.6759205  32.1572065
   2.1315980  37.5557113  77.7558279   2.6094270  37.3486376  76.9526911
   1.8267599  38.4540653  77.6282978   1.8382865  41.6451120  42.5834894
   1.1208086  41.6300058  41.9500637   1.4971140  42.1527910  43.3197641
  34.5845819  54.6167469  45.5094576  33.9306188  54.3235636  46.1439705
  34.1260338  55.2652025  44.9751568  97.5611018  22.7847052  38.6149621
  98.0830406  22.6508546  39.4060969  98.1694756  22.6165342  37.8953552
  94.3595694  52.9833412  39.5739484  94.4986783  53.6317205  38.8836718
  94.0990673  53.4985018  40.3374767  24.4760728  39.5514250  52.6372242
  23.9059162  39.2494893  51.9301224  25.0277305  40.2200079  52.2311449
  16.9500887  56.1829281  46.2042904  16.7592883  57.0927525  45.9761572
  17.1754372  56.2113571  47.1341515   9.1572791  59.7508860  46.5847397
   8.3561271  59.2953300  46.3261747   9.4341081  59.3110561  47.3885727
  26.3887668  43.2506800  42.7129078  27.1257830  43.8394547  42.8753328
  25.9621954  43.6098862  41.9349337  38.6955333  42.7819920  69.8160982
  38.9883828  42.1654558  69.1450167  37.7549362  42.6224279  69.8938608
   8.9985234  27.6355982  49.0848970   9.2399889  28.0927563  49.8904610
   9.6385366  27.9344034  48.4388876   5.3905666  69.8310184  31.1241865
   4.5098379  70.0911379  31.3941646   5.4694653  68.9207220  31.4094353
  37.9904604  47.7800751  33.6204314  38.3605146  48.5112858  33.1258440
  38.2801032  46.9999790  33.1473660  95.6456982  71.6640568  36.1774945
  95.3291355  70.7999802  35.9140825  95.0022589  72.2747278  35.8179116
 110.8515255  33.8762426  77.9493713 111.1969843  33.1622386  77.4135685
 111.6281836  34.3512392  78.2450294  32.2202420  42.7889633  52.8960037
  32.1823621  41.8923950  52.5628901  31.3360429  43.1310463  52.7640724
  24.1071033  47.7761507  79.7074795  23.3140755  47.4069118  80.0960636
  23.7867045  48.4136057  79.0693378   6.4838290  61.0817766  63.2637024
   6.7946625  61.5308189  62.4775839   5.7643718  60.5304956  62.9559660
  25.9030032  15.9541762  44.3537235  25.5955791  15.8805799  45.2572203
  26.8194413  16.2188053  44.4333553 107.2176788  14.5705097  91.9496047
 106.3691733  14.7346084  91.5380965 107.5395725  13.7749212  91.5257389
  97.8554390  14.5138013  82.7704811  98.2037900  15.4029655  82.8358269
  97.7249061  14.2403746  83.6784649  81.9357561  80.5077934  51.1798191
  81.5297793  81.0367870  51.8665361  82.3015140  79.7540712  51.6427994
   6.9696414  56.2409925  70.6374884   6.5262109  56.9379330  70.1538849
   7.8494501  56.5825844  70.7971191  24.2542481  97.1744347  53.4602022
  25.0885153  96.9590092  53.8771248  24.3881273  96.9672108  52.5353432
  52.4714459  94.8702366   6.8407356  51.5471805  94.6223767   6.8638050
  52.9436673  94.0395482   6.8972504  74.5064545  96.5513992  15.9183276
  74.4074249  95.8219814  16.5301883  73.6693859  97.0138454  15.9594488
  12.1547651  46.1757231  54.6159697  12.4004316  45.9893608  55.5221415
  12.0508647  47.1268177  54.5867395  25.1727843  93.8400841  55.6896448
  25.8044720  94.2487526  56.2814188  24.3288636  93.9486504  56.1281013
 107.7981655  91.8897343  61.2266874 107.6869689  92.7303600  60.7825994
 108.2279251  92.1103954  62.0530319  23.5816932  71.7682076  48.2218647
  24.2003465  72.4975681  48.2610273  23.6161351  71.3777685  49.0951347
 107.2870408  56.9804001  61.6204262 106.6537188  56.5589380  62.2013807
 107.6356558  56.2658215  61.0874367  21.9086194  41.8148518  33.7391782
  22.0155835  41.0246801  34.2687225  21.0089970  41.7664957  33.4157991
   1.7102444  63.5336113  47.2859192   1.6416626  62.6260042  47.5821877
   0.8535017  63.7266684  46.9051886  28.4615541  85.0314140  60.6221676
  27.9294348  84.3518257  61.0359764  29.3425107  84.8900509  60.9688091
   4.2239699  53.7934303  65.9402800   3.6965036  53.3851862  65.2537298
   4.7427821  53.0752754  66.3026571  34.1862726  61.0100460  72.1839571
  34.1329074  61.8627739  72.6155090  34.9881721  61.0549116  71.6632128
  21.9455791  18.7970352  87.1915913  21.2911463  18.3797145  87.7517605
  22.6940727  18.9475954  87.7689362  20.1188183  17.5978482  57.6555014
  19.2599607  17.8507900  57.9940510  20.6973243  17.6363659  58.4171295
  12.8475976  30.8424330  87.7163410  12.0825434  30.3387475  87.4384594
  12.6142287  31.1736035  88.5835838  16.0739934  85.8452606  59.8887777
  16.5975010  85.1661301  60.3141642  15.2123129  85.7760715  60.2998161
 108.7783487  58.0680466  75.3985691 108.4457184  58.9636087  75.4582548
 109.6711321  58.1657171  75.0674677  11.0541892  31.4953017  55.7542753
  11.1980402  32.1583819  56.4294529  10.6898260  30.7470775  56.2271690
  13.4827590 102.4620533  44.0130377  13.5172081 101.7492580  44.6509790
  13.2562113 102.0338631  43.1874704  44.3295431  59.0777636  55.8896971
  44.3683720  59.9149847  55.4273272  44.7631168  58.4591627  55.3018379
  20.3734732  43.3550549  56.0019302  20.4871154  42.5625229  56.5265322
  19.5971274  43.1807852  55.4698133   2.7641582  66.2885427  23.5227656
   2.1450207  65.6413221  23.1851101   3.2757384  66.5523767  22.7579713
  96.9748984  71.1538553  63.9757252  96.2253343  70.7890892  64.4461870
  97.6706348  71.1986160  64.6316099  16.0779190  58.6247635  14.3374872
  16.3524556  57.7579165  14.0384245  16.4044404  59.2241716  13.6664236
  13.3581555  77.8091192  40.6098223  13.4151435  77.1449947  41.2967920
  14.1760123  78.3009338  40.6837082   2.5877583  74.4486952  58.4445333
   1.7180233  74.2888165  58.8109112   2.8106984  75.3333950  58.7340879
   7.6767045  82.0584297  73.4802580   7.4159050  81.1498165  73.6307526
   7.8082991  82.1162319  72.5339127  18.0191445  64.1099644  47.5447130
  18.5316515  63.3097267  47.6595640  17.9929197  64.2436790  46.5972614
  33.2225776  42.5441408  64.0900993  32.5478101  43.0030680  64.5904016
  33.8078833  43.2374859  63.7852621  74.1911579   7.6552772  32.9088855
  75.0555302   8.0574893  32.9943943  74.3372489   6.7297363  33.1044984
  20.8553839  82.7837944  64.5712137  21.6812491  83.2463646  64.7133875
  20.2500963  83.4614182  64.2700577  55.4234123  88.5619926  71.3854456
  54.5679569  88.6660194  70.9687853  55.7800531  89.4493866  71.4250040
  30.0479960  70.2128696  63.3441114  30.3082323  70.3978825  64.2464876
  29.6396995  71.0240126  63.0414915 103.5760872  84.9294758  89.6039200
 103.1646167  84.8331261  90.4627800 103.9026831  84.0542507  89.3952656
  15.3225887  43.2484436  50.1515293  15.6816101  44.0945101  49.8841143
  14.3865681  43.3149672  49.9626589  37.5628829  92.2507381  57.2873640
  36.9581723  92.9290867  56.9866896  38.2618403  92.2459888  56.6333961
  18.7183928  35.4075122  68.4251308  18.9941287  34.8720574  67.6811647
  18.9525473  34.8878217  69.1941118  41.9121790  90.3850555  54.7837543
  42.1209097  89.8852825  53.9945269  41.1898184  89.9041748  55.1877117
  34.4218612  59.6434212  46.1713982  34.6739316  58.8262749  46.6014719
  33.4862852  59.7312927  46.3536310  12.0817673  98.8964462  69.2924547
  12.5498343  98.9949608  68.4633350  11.8619561  99.7914124  69.5512152
  11.7504740  50.3034496  51.4141893  12.1943891  49.5060349  51.1255646
  11.9073176  50.9330034  50.7104158  19.0465283  54.6944046  43.1885576
  19.4318676  55.4374409  43.6529255  18.7565184  54.1024780  43.8826418
  20.9888625  44.4643259  52.5282860  21.8572068  44.8340273  52.6880693
  20.7638836  44.7546530  51.6443586  35.4718852  61.2072182  55.2923059
  35.8388329  60.3232193  55.3032494  35.5498409  61.4876318  54.3804264
  25.4436851  84.3272686  61.1310196  25.2417231  85.2601051  61.0585022
  24.6670437  83.8865566  60.7862997  54.1013336  95.9664822  81.8167305
  53.8495016  95.5489922  82.6404572  54.0645742  95.2617741  81.1700058
   8.2662112  60.4632902  37.9506898   8.6816573  60.9326172  38.6741304
   8.3993548  61.0291529  37.1902275  26.2355161  76.8971443  57.4568987
  25.6767845  76.8976641  56.6796923  25.6556439  77.1673203  58.1689262
  18.3160841  92.1903706  51.4773607  17.3694706  92.3106670  51.4019680
  18.6903965  92.9395962  51.0139132   8.3639830  61.9288874  53.3011580
   9.1468453  62.4761629  53.2391405   8.3042073  61.7006063  54.2288160
  17.7300143  32.8758001  34.6034455  17.9798901  32.5287724  35.4598141
  18.1555879  32.2924018  33.9751434  52.3094177  79.4372845  47.4496603
  52.9124975  79.7238922  46.7638159  51.8892956  80.2427959  47.7511311
  25.7325625  55.6323004  53.1015205  25.5706954  56.5751696  53.0695343
  25.9732842  55.4613638  54.0120506  23.7945747  43.4824848  36.6517544
  24.5583558  43.2151175  37.1630120  24.1584182  43.7962770  35.8238745
 104.6445613  83.0623913  25.0993395 105.4007541  83.3985424  25.5803871
 104.8795281  83.1706238  24.1777611  19.3156612  94.1508102  50.1171255
  19.9067700  93.4623718  49.8123693  19.8946238  94.8730755  50.3607941
  32.5365901  74.8743486  33.8909483  31.9498086  74.1961336  34.2255330
  32.8112674  74.5513678  33.0327702  50.1501894  77.4924278  76.2140656
  50.9476423  77.7174902  76.6932821  50.0937366  78.1500006  75.5207777
   8.3219826  87.5885105  65.1031685   8.4730321  86.7095470  65.4507923
   9.0694427  87.7501106  64.5274782  23.4661436 103.4196472  28.7570930
  23.7682915 104.3176270  28.6208177  24.1085482 102.8785229  28.2980418
 109.3255885  74.2216969  46.3083458 108.9440249  73.6430454  45.6481934
 108.8851972  75.0609684  46.1745167  22.0669985  73.6304379  82.8497601
  21.3727140  74.0199757  83.3812332  21.8703508  72.6936579  82.8481102
  26.1541843  43.1851149  22.6780009  26.5131235  42.2992659  22.7296329
  26.9213986  43.7490940  22.5802970  20.4251814  69.3694592  80.7788181
  21.1118364  68.7036514  80.8167458  20.7229996  70.0549936  81.3768005
  23.0182147  72.5005436  86.6010094  22.1086860  72.2040987  86.5677357
  23.3285141  72.4231434  85.6988144  79.3349387  29.3335897   5.1367676
  79.5420419  30.1553137   5.5818665  80.0291632  29.2323477   4.4855892
  32.4098420  81.1101627  60.9235811  32.9498482  81.5433979  61.5845919
  31.5152550  81.3808441  61.1301708  98.0689786  46.3689756  48.7766981
  98.3929382  45.4799080  48.6323309  97.7197216  46.6375685  47.9269266
  28.1941557  43.8542986  86.8695259  28.5823107  43.6027002  87.7075386
  28.7104106  44.6077156  86.5830326  20.5224633  57.9956245  47.3033047
  20.5363727  57.1670341  46.8242693  20.0207663  57.8055906  48.0960321
 110.9283044  23.2081253   1.1847794 109.9985792  23.1651527   1.4083779
 111.2053038  24.0761644   1.4780724 112.0061418  68.4968424  57.9790497
 111.8290111  68.6921597  57.0588827 111.6043164  69.2208529  58.4592295
  42.9493189  67.9898262  54.2288589  43.6031914  67.7773428  54.8948383
  43.4293318  68.4990692  53.5757971  17.4941790  87.5245571  14.9641073
  18.3014846  88.0351067  15.0259411  17.6447630  86.9260120  14.2324638
   3.7947989  60.6168556  30.1480031   4.7240633  60.7610750  30.3266072
   3.6531445  59.6916628  30.3484654  29.2543578  98.7070656  73.9242268
  28.3633137  98.9446545  74.1807890  29.7778535  99.4810104  74.1320419
  26.2151098  45.8310318  54.1326380  26.4314461  46.6271305  54.6180820
  25.2585483  45.8238506  54.0984249   9.7155720  68.2016706  44.5353842
  10.5088472  67.6665926  44.5605946   9.4341600  68.1698418  43.6210394
  29.3730688  92.7513504  35.7935262  29.9346733  93.0574799  35.0814033
  29.6777749  91.8619633  35.9734321 104.1255192  50.9158850  32.7357173
 104.7490917  50.8984184  33.4617233 104.3185757  50.1232386  32.2350454
  14.4556737  66.2643194  40.6569815  14.3781018  66.6251802  39.7738099
  15.2620173  66.6474676  41.0022974  34.7243619  77.7803707  76.4382982
  35.4495072  77.9400778  77.0423603  34.1711426  77.1438932  76.8911552
  16.6414332  44.1068029  11.3493979  17.2990632  44.7102118  11.6953027
  17.0623243  43.2478333  11.3848436  54.9724913  70.2181625  66.7834663
  55.6037569  70.8744335  66.4884233  55.0744629  69.4933987  66.1665726
  44.4455194  77.4994802  63.4520435  44.9041796  76.6597700  63.4248018
  43.5808277  77.2887707  63.8043833  24.3248725  88.6148834  67.6337576
  24.1085029  87.7718830  68.0321980  24.8118854  89.0825272  68.3122587
  16.0708654  47.5605631  65.7788944  15.5037045  48.1937551  65.3388596
  16.6095328  47.1937656  65.0778008  40.7011223  55.9603643  53.5450792
  40.9281683  56.8262529  53.8840771  41.2843800  55.3605747  54.0101528
  28.9839673  52.5132322  32.0169806  29.8524642  52.1586084  32.2072172
  29.1466284  53.2277203  31.4011288  34.6757865  96.2489414  66.6808414
  35.2479768  95.5787468  67.0545578  34.4790769  95.9315968  65.7994604
  52.0918369  84.4351196  24.1141629  52.5044966  84.8538017  23.3587480
  51.2786484  84.0664768  23.7691164  27.0286298  98.9855099  46.3584280
  26.4402795  99.7364712  46.2800980  26.7423129  98.5390091  47.1552324
  29.1631913  34.8426151  73.8635492  29.7071099  35.6301761  73.8519907
  29.7344160  34.1520667  73.5272789  28.1016159 106.5867329  75.8741665
  27.7856493 106.6171169  74.9711323  29.0180278 106.3208580  75.7984543
  48.4021330  68.0528450  48.9404917  48.5257578  67.1195126  48.7677431
  47.6083946  68.0946255  49.4738388  97.6543400   2.0652883  85.0131333
  97.1157429   2.6330011  84.4619084  97.8616641   2.6013534  85.7785660
  45.8547974  70.4518986  40.5723953  45.8298826  69.5527315  40.2451181
  44.9399424  70.7334280  40.5690670 100.8486043  80.0704861  65.3574753
 101.1126421  80.2973175  66.2491417 100.6233798  79.1412973  65.4034328
  19.0631247  85.0919533  64.7721624  18.6419284  85.3082371  65.6040573
  19.9691641  85.3812218  64.8801088  23.4659696  76.9656992  36.7233968
  23.7234020  77.7879286  36.3063812  23.1966305  76.4029980  35.9974122
  37.9257727  56.5052080  47.2199869  37.0521045  56.7863894  46.9481897
  38.4736013  56.6455269  46.4477015  15.6232452  60.0278521  35.3686428
  14.8510396  59.6747923  35.8105493  16.3620329  59.5884466  35.7897711
 110.7179044  54.1031218  47.8740263 110.1211946  53.4011030  47.6145411
 111.2302165  54.2854118  47.0862865  34.1484046  87.2854424  38.4244132
  34.6079540  88.1132030  38.5653305  33.4608340  87.2768402  39.0903020
  25.8246088  52.7290630  52.6433945  25.7855177  53.6848021  52.6789331
  24.9583817  52.4652958  52.3330545  23.1288028  71.4898252  61.1548853
  22.8929353  71.6607857  62.0666790  23.9904761  71.0758877  61.2039614
  15.8106184  55.6108761  16.4444470  15.6315351  54.8005295  15.9674764
  16.7563486  55.7333899  16.3618803  10.9194338  74.7083330  42.4214315
  10.0313103  74.6417952  42.7722073  11.0627520  73.8750887  41.9726562
  99.3640302  67.5590229  66.8698788  98.6912046  67.9261827  66.2965298
 100.1604997  68.0386543  66.6422272  43.0742359  97.4463654  34.5275211
  42.4395561  97.6484680  33.8400888  43.0975628  98.2339382  35.0710416
  98.6043297  64.8218298  66.4410019  99.0093015  65.6872511  66.4981842
  98.0934869  64.8494196  65.6319857   0.5660719  88.2683659  72.2791862
   0.5891209  87.9744148  73.1898403   1.3403159  87.8717709  71.8798208
  26.3604212  93.4225750  47.0366526  26.7308903  93.1120968  46.2104654
  25.5347252  93.8379478  46.7877960   7.3697460  76.1972046  15.1189756
   7.5349307  76.7768431  14.3753612   7.3359084  76.7822599  15.8758092
   4.9011248  49.0086126  61.1129284   5.4934394  48.2664728  60.9919834
   5.4792327  49.7691536  61.1729336  85.2157927   1.4835548  75.2589989
  84.9573661   0.9303569  74.5218277  85.9547616   1.0229968  75.6565523
   8.5882819  42.9865789  26.1861277   8.9766419  42.6207876  26.9808650
   9.1570270  42.6814222  25.4792762   6.4556438  88.3279800  37.5123000
   7.3752993  88.5909939  37.5482082   6.0612357  88.9225101  36.8741775
  20.1335049  69.9043131   8.6960942  20.5164599  70.7760286   8.7945378
  20.7384896  69.3234396   9.1574073  63.6402048  20.7731611   3.8720905
  63.1093849  20.5193216   4.6270954  63.2739283  20.2730066   3.1427586
   5.9216815 101.4321041  56.0078716   6.1712420 102.0962906  56.6503668
   6.2487066 101.7704010  55.1743031  10.6137836  73.1312799  74.6985483
  10.1611781  73.6667728  75.3501844  10.0008404  73.0773401  73.9653206
 106.8850104  74.8300171  26.2694669 107.7503256  75.2351904  26.3268852
 106.2897997  75.5597067  26.0976744  36.3639569 105.1781368  47.2806883
  36.3692498 104.2354488  47.1147251  36.2798190 105.5736065  46.4130735
 108.0387364  76.0600662  49.0573549 107.8394239  75.4899549  48.3147383
 107.2155218  76.5134716  49.2389345 110.6447105  40.3482580  53.1422949
 111.5402056  40.6769609  53.2215071 110.2557869  40.8780479  52.4463844
   6.1040741  75.9282541  56.9414377   5.6697798  75.2019691  56.4940834
   5.4430896  76.6198826  56.9727325   4.0449971  68.2385015  51.1234856
   3.3170640  68.5951805  50.6144428   4.8085630  68.3441830  50.5560064
 106.2963919  71.9596910  46.6974974 105.5059747  72.0966721  46.1752796
 106.9924478  72.3813629  46.1935806  64.5280100   0.3316974  61.9947529
  63.7812758   0.6564330  61.4915991  64.4602681  -0.6212903  61.9358873
   0.2478518  55.9953833  69.6418762   0.9736232  55.5782795  69.1776466
  -0.4272081  55.3183794  69.6886349  41.3449383  97.8915501  83.5738850
  41.8592215  97.8682137  84.3808556  40.4750252  97.5897789  83.8354588
  33.4525394  92.8994942  83.4324074  32.9135299  93.3595657  84.0758610
  33.9886951  92.3013115  83.9529419  47.7932405  50.9241152  61.4119768
  47.3212481  51.5237284  60.8341217  48.1406784  50.2511454  60.8266306
  93.5694303   2.9779560  18.5808193  93.1307270   3.8215811  18.4709847
  94.4753482   3.2046492  18.7909424  31.8719625  75.1578808  43.8596582
  31.0986447  75.5753946  44.2389870  31.5958929  74.2587090  43.6821461
  27.7007651  69.2899895  52.6190662  27.3898888  70.1770687  52.7998400
  28.4566641  69.1789389  53.1957102  40.7500029  71.5685415  51.7226887
  40.6674385  70.8091784  51.1458206  40.7540560  72.3202133  51.1300659
  57.7399063  91.1577988  55.5445242  57.7319765  92.1130562  55.6048489
  57.1699619  90.9599972  54.8013783  16.2223613 104.6378422  27.9421782
  16.1185002 103.8967133  28.5389757  15.7407737 104.3813705  27.1557140
  34.0105486  64.6246767  70.6664991  34.6816492  64.7555256  69.9966240
  33.4217191  63.9700842  70.2909756  39.4377518  54.3996811  89.6813583
  39.4273043  54.7392988  88.7864876  40.3399181  54.1100216  89.8170853
 112.5241692  72.6747417  54.3076992 111.6837040  72.3890829  54.6658134
 112.5885768  72.2289658  53.4630871 113.3855122  80.2494335  57.3214817
 112.9718748  80.4860115  56.4913225 113.1831207  79.3206453  57.4338102
  93.9800502   3.1786727  39.2846823  94.8998738   3.0562114  39.0498257
  93.6910535   3.9146804  38.7452245  25.1785636  60.5676746  63.1482267
  25.8496857  60.3668499  63.8005304  24.9767613  59.7235632  62.7445126
 101.6700135  82.6358414  82.2580338 102.3601018  83.2103729  82.5895882
 101.2461077  83.1447697  81.5669918  66.3995838  87.9580784  55.4651546
  65.5771208  88.0067253  54.9778986  67.0512390  87.7067757  54.8106146
  35.0727177  94.9440193  82.5201035  35.0043488  95.6510925  83.1616592
  34.5431471  94.2359352  82.8867149  30.8318305  66.6859627  69.5191240
  31.1813045  66.9744682  68.6759949  31.4470553  67.0333529  70.1649189
  89.9766062  73.3352089  88.2777691  90.5260967  73.7972307  87.6446629
  90.5802964  72.7527714  88.7388039  31.1803365 106.4535522  79.9670982
  31.8482089 106.7475986  79.3476486  30.8680677 105.6236458  79.6065760
  12.8523946  57.1129704  81.8370152  13.0365860  56.8999815  80.9221649
  12.3770905  57.9429388  81.7986870  18.1892145  51.4748716  50.4827690
  17.4494064  51.2613297  51.0513783  18.4941518  50.6276083  50.1581335
   8.1261879  78.1284809  87.4548340   8.6062646  77.6441908  88.1265640
   8.5423744  78.9902925  87.4374199   9.4904399  70.8204126  52.3321581
   8.9803177  71.4581585  52.8314447  10.2849078  71.2921524  52.0821285
  44.3637753  98.3735657  61.6845655  44.4384909  97.8784466  62.5003529
  43.7580204  99.0853691  61.8910217 106.3444076  83.7087059  62.9859447
 107.0805590  83.6874962  62.3745012 106.1563741  82.7876759  63.1664515
   6.2425232  28.4937191  63.6236954   6.4841419  29.0071392  64.3945742
   5.3455597  28.7641382  63.4273243  51.1763191  83.7397575  43.3436441
  51.1159086  83.5394859  42.4095821  51.7736340  84.4862461  43.3904123
 110.1420183  96.7895603  71.3009930 110.7627703  97.1826458  70.6874943
 109.2832787  96.9552708  70.9119749   1.4945382  82.6538277  66.8023014
   0.6520947  83.0135536  66.5246058   1.7276920  83.1621933  67.5791121
  43.0478811  71.9366932  49.3532705  42.4818659  71.8653154  48.5846615
  43.9276981  71.7603493  49.0200138  21.8239117  43.8894463  76.4359617
  20.9683371  44.2154789  76.1568117  22.2724080  43.6651182  75.6206322
  32.8172636  72.0382023  25.3111219  33.5245776  72.5008678  25.7604361
  33.2646275  71.4408493  24.7117352   9.9440449  96.0447216  75.2236366
   9.1335225  95.7071877  75.6048870   9.6871382  96.8648911  74.8022556
  14.3889046  43.1436586  43.4341526  14.3692505  42.2094631  43.6418104
  14.2206407  43.1833363  42.4926949  12.3133922  44.2773294  70.4126072
  11.6751516  44.8871803  70.0425243  12.1671665  44.3217754  71.3575268
 104.1629116  54.4504213  66.5518045 103.8795422  53.7240839  67.1071148
 103.3699731  54.7219372  66.0894632 105.1782964  94.6912384  22.9158735
 104.5699154  95.0505447  22.2701144 105.0136827  95.2005959  23.7093997
  78.4828590  55.2912855  92.6535034  78.6382578  55.2213001  91.7115974
  79.2515491  55.7522249  92.9894829  34.2957664  55.6090498  32.9242301
  35.0789165  55.9371614  32.4823594  34.4482350  55.7943249  33.8508701
 108.1341825  81.1829662  68.3899307 107.9262243  81.0133934  67.4711084
 107.8159468  82.0718765  68.5474205  44.3059540  73.7358427  55.5142117
  44.4023609  74.0755987  54.6245480  43.4115839  73.9683342  55.7637787
  17.2358191  61.7970753  12.7126932  17.2532952  62.1199846  11.8117726
  16.3348424  61.9419670  13.0016220  69.3492557  53.0689604   6.2050640
  69.0379997  53.9696390   6.2951481  69.0283616  52.6250059   6.9900334
  13.8865077  85.7621002  41.1448717  14.1524720  86.2929726  40.3940916
  12.9297304  85.7841873  41.1269093   4.7805476 106.2115288  81.4737797
   3.8856855 106.3746357  81.1756992   4.8862946 106.7800713  82.2365379
  32.7628517  89.9810791  59.2675972  31.9308043  89.6813488  59.6337748
  32.7212477  89.7331238  58.3440065  28.1031823 100.3499126  68.1210709
  28.6223865 100.5252171  68.9058828  28.5133743  99.5785904  67.7298689
  11.1295700  91.2720776  35.3765607  11.9206810  91.7964077  35.2522397
  10.6572187  91.7147160  36.0816789  25.4502940  59.2636538  81.4137554
  26.0663509  59.9896622  81.5118217  25.8693981  58.6773300  80.7838249
  21.8158960  77.2046328  25.4116678  22.2318983  76.9582367  26.2377810
  22.1830893  76.5983248  24.7684050  50.1276875  77.2426081  69.7592497
  50.1065493  76.8022490  70.6088781  50.9978247  77.6391983  69.7166157
  18.6073899 103.5796452  62.2870016  19.4497752 103.8438034  61.9170809
  18.2933116 102.8916645  61.7002487  38.9333153  64.8281288  47.8558493
  39.8017025  65.1741505  47.6499271  38.4148574  65.6006384  48.0809212
  30.7034850  63.9677572  59.9500751  30.1664877  63.3047915  60.3840590
  30.8726478  64.6209717  60.6289911  10.8313084  73.2283401  62.0128345
   9.9577564  73.5051155  61.7361832  11.3909113  73.9829683  61.8294954
  34.7498631  46.1204481  39.2178106  34.5839095  45.9878063  38.2844853
  35.0129986  45.2580738  39.5392203  24.5197034  69.8417568  67.7206373
  23.8633585  69.9621439  67.0343828  24.6040273  68.8922453  67.8074980
  15.6908369  71.5013695  33.1536293  15.7766831  72.4331331  33.3553123
  16.3637269  71.0779428  33.6866975   8.6667818  82.4730015  50.8335972
   8.7886459  81.8072128  51.5104342   7.8498065  82.9107857  51.0726070
  90.0276993  62.7347183  60.4396915  89.1642474  63.1405020  60.5172825
  89.8782514  61.8121719  60.6465864  59.1890764 102.2830486  18.6645448
  59.3290281 102.2737312  17.7176774  59.6093082 103.0904198  18.9608407
  19.3805456  62.6421595  67.8411913  19.9005580  61.8553829  68.0049133
  18.7162948  62.3633575  67.2108936  30.0340128  55.0510883  49.0616560
  29.4674039  55.7910633  49.2798662  29.4726992  54.2821407  49.1610670
  11.3803852  52.8195095  76.1292553  11.2755239  51.9429922  76.4993238
  11.9169629  53.2871056  76.7693090  31.9607938   4.1260242  39.3802762
  31.2858100   3.7295055  39.9310970  32.6941062   3.5121440  39.4207621
  54.0591097  46.9008064  61.8748188  54.8910856  46.4312649  61.8149757
  53.4413862  46.3567972  61.3862514  40.4980135  72.8193426  64.7828865
  41.0664558  73.0619574  64.0519667  39.8233867  73.4982395  64.7972298
  18.5628867  77.6654387  52.0467424  19.3624258  78.0326939  52.4236917
  18.0502868  77.3806334  52.8032875  30.1275206  59.8615217  83.2001781
  30.6266022  60.0324011  82.4014664  30.1985097  60.6717300  83.7049103
  23.4467411  65.8089828  47.9111910  24.1350341  65.7604170  48.5746098
  22.7813768  66.3783693  48.2976103  97.3301099  74.5296288  66.6631937
  97.8106271  74.7299671  67.4664354  96.4178954  74.7290468  66.8737411
  61.0161781  83.5183144  41.7395973  60.3309155  83.1058407  41.2137461
  61.0204697  83.0228806  42.5585985  31.5237117  90.5508327  44.8652315
  32.1883798  89.8634243  44.9091101  30.6948900  90.0915909  45.0008202
   9.5202279  83.2386112  35.4680634   9.7821778  82.5764465  36.1077070
   8.6295319  82.9919052  35.2190089  33.6108184  95.7513905  70.4601336
  32.8926158  95.7826042  71.0921478  33.4078288  96.4449787  69.8324585
 109.4526087  40.6349468  71.5740156 109.8187320  41.5193319  71.5812922
 110.0369091  40.1291752  72.1388292  42.4096918  88.4955883  40.8992767
  42.8289461  87.8908443  40.2871132  42.1725559  87.9506874  41.6496706
  34.4654489  56.6501904  35.7896185  33.5855508  56.9359684  36.0352635
  35.0292993  56.9844389  36.4871740   3.0015305  72.8807259  68.3218098
   2.5743219  73.7368488  68.3497000   2.7445373  72.4580002  69.1412544
   1.3590288  73.1795359  86.8418598   2.0323759  73.3413696  87.5026512
   1.6824135  72.4245453  86.3502884  30.5309439  84.1610527  73.7767506
  29.7987771  84.2198181  73.1629801  30.8634806  83.2700443  73.6682796
 101.1962317  63.9035892  86.9798088 101.2315558  64.2211914  86.0775280
 101.0784827  64.6935654  87.5073624  16.7999434  92.2292137  47.9045248
  16.8066525  93.1778622  47.7770185  16.5731990  92.1131706  48.8272095
  16.2695992  51.7898941  43.2519722  16.1520135  52.5279617  43.8500166
  16.2481439  52.1828699  42.3794222  46.9142962  83.2340145  46.1802053
  47.8647375  83.1655502  46.0896397  46.7332602  82.9048538  47.0606089
  39.7957778  86.7187977  64.4161892  40.5300570  87.3308945  64.3671799
  39.4961071  86.6312885  63.5113287 111.9350092  61.0343742  43.0415201
 112.8896944  61.0779381  42.9875708 111.6881043  61.8087530  43.5471010
  38.0323219  81.0101128  77.4740219  37.8228784  81.8915844  77.7828598
  38.6532497  80.6715584  78.1190538  51.0175765   1.5126323  90.8011436
  50.1830841   1.3802909  90.3513241  51.3480140   2.3412227  90.4540253
  74.9490357   5.4112338  58.7896872  74.9066068   4.6993732  58.1511831
  74.0833307   5.8179569  58.7528181  42.7242041  81.2305927  70.8308172
  43.4775925  81.7974567  70.9960461  42.7389431  80.5973816  71.5484905
  10.3405190  95.6134796  53.6219692  10.2074456  94.6710110  53.5205412
   9.4591373  95.9688663  53.7364101  28.3132553  58.3191729  75.4669666
  27.6797652  58.6562395  74.8334789  28.8725901  59.0692997  75.6686640
  11.0115099  66.6951847  26.7118287  10.8181989  67.5726700  27.0418048
  10.9415829  66.7762089  25.7606292  20.9214091  72.3331261  53.3267975
  21.5774202  71.7438459  53.6991262  21.4220095  72.9239988  52.7642107
 106.5461971  51.7575342   5.1896488 106.4250828  52.6065809   5.6147110
 106.7405202  51.1555654   5.9080612  81.8086718  52.9294157  55.4923010
  80.8669876  53.0170774  55.3447390  81.8788622  52.3688889  56.2650347
  19.1432416  84.7383690  55.6836605  19.6820676  85.4901695  55.9300232
  19.2788494  84.6452332  54.7407055  62.6757683  25.3656132   3.4893620
  63.6162914  25.2930147   3.6517727  62.4736680  24.6253282   2.9172051
  12.3703718  82.8066349  64.7658396  11.5758359  82.9515934  64.2520952
  12.2182894  83.2833672  65.5818176  15.4703450  94.6620083  75.8367634
  15.6584990  93.9274120  75.2526426  14.5859504  94.9384785  75.5966759
  32.3737454  51.0170460  26.0174155  31.4520097  50.9357023  25.7724214
  32.7750921  50.2029228  25.7135153  41.3129679  19.1876792  19.7578549
  41.7327938  19.1066551  18.9014602  41.0660774  20.1105785  19.8172092
  25.1314939  29.4504451  16.5944350  25.9429515  29.6972942  17.0380974
  25.4152883  29.1223239  15.7411897  48.4214068   0.0105476  56.7703295
  48.9869154   0.7820892  56.8043327  48.0656350  -0.0648499  57.6557493
  15.1718986  45.3515959  28.9884114  15.4312122  45.5776691  29.8816538
  15.9905434  45.1098204  28.5552859  90.1019669  13.0504703  41.4771986
  90.6450082  13.8287162  41.6023922  90.7283545  12.3300743  41.4071560
   6.1972803  60.3518295  31.8108153   6.9828552  60.2125692  31.2819386
   6.1565876  59.5871925  32.3851919  50.4957485  81.0708618  64.6916819
  51.1518574  81.7543125  64.8282385  50.0655031  81.3123417  63.8714361
  36.4062601  10.0109767  65.8756304  36.5504985  10.5332946  66.6646862
  36.8884651   9.1994476  66.0341358  38.9384770  90.7937431  72.5510502
  38.7490106  91.4386940  73.2324982  39.6999598  91.1475372  72.0914888
  77.5282122   6.5644168  54.3655920  76.7207599   6.5910434  54.8789597
  78.0109883   5.8163738  54.7171450  92.7115775   0.9196853  27.0172381
  92.0390130   1.0242938  26.3442278  92.4979831   0.0890254  27.4422288
  22.1560431  64.5111609  85.1187420  21.5337038  65.1617289  84.7936440
  22.9848886  64.7420311  84.6992874   8.0657390  46.5267164   5.5076706
   8.3857921  47.4114401   5.3314030   7.3504689  46.4020616   4.8839008
  28.9190698  25.3013754  68.2901287  29.2703342  24.4271493  68.4591627
  28.1948090  25.1549625  67.6816511  62.0663834   3.3878230  82.5700188
  62.5171018   3.4221935  83.4137630  62.7658964   3.4667205  81.9214153
  29.5909047  98.9871216  19.6916687  30.1363730  99.7253132  19.9632740
  29.2664647  98.6146259  20.5115557  75.0791765  12.9251098  39.1489315
  75.4743148  12.0772552  39.3520164  75.2196146  13.4497547  39.9371266
   8.1443530  91.9162273  24.8860407   7.8896832  92.8361130  24.8140430
   8.9192724  91.9255066  25.4478645  59.4962168 104.9732494  47.9678965
  59.3637419 104.3921947  48.7169361  58.6894512 105.4858303  47.9167700
  17.4789333  59.3521404  48.4530926  16.6419995  59.5266199  48.8835955
  17.6567733  58.4303427  48.6398888  30.6228018  97.6777363  89.1328430
  29.8812962  98.2808208  89.1846752  30.6241751  97.2267151  89.9771214
  83.1830121   0.7511901  51.7868328  82.7807427   0.7864570  52.6546812
  83.7367249   1.5310001  51.7476320   4.9624819  97.5965881  76.8227863
   4.4782659  96.9196606  76.3499880   4.3581659  98.3376694  76.8655586
   2.7992976  56.1505127  32.6379538   3.1871629  56.9872713  32.8941274
   2.3820420  55.8256674  33.4358287  19.9890733  84.4137859  15.9642744
  19.9521482  83.5196400  16.3039315  19.0798640  84.7127724  15.9775448
  23.1637311  82.8485298  80.6192970  22.2443271  82.7522278  80.3709984
  23.3098626  82.1603870  81.2683964 100.2929211  11.0821247  86.0054970
  99.6916581  10.3520297  86.1526966 100.3037167  11.1956405  85.0551128
  15.1317191  82.1768093  29.8232794  15.9899008  81.8983459  30.1429820
  14.7557402  82.6747799  30.5491567  90.4651929  10.8418655  44.8171949
  89.9203969  10.3128051  45.3998709  91.3549949  10.7259464  45.1504326
  46.9147444 100.6415558  48.2102966  46.7989635  99.7511387  48.5419321
  46.0309267 100.9283066  47.9803514  30.7996798  76.8293476  41.4972448
  31.5774941  76.4364481  41.1011839  31.1444974  77.4907446  42.0971537
   5.2945727  82.3059940  38.5309339   5.7275242  82.9644775  39.0742421
   4.8920721  82.8074932  37.8218985  32.5891054   9.0499973  39.5212650
  33.0320904   8.9293193  38.6813641  32.1514881   8.2142925  39.6834898
  47.4279881   0.0632095  59.1938591  46.6716559   0.0420379  59.7801590
  48.1640638   0.2936744  59.7607040  49.0464973  91.8235207  65.0235128
  49.5575094  92.1914291  65.7444429  48.3868027  92.4903584  64.8328114
  60.7018066  11.3089466  20.9748769  61.0315204  11.7077922  20.1696181
  60.5032421  10.4050064  20.7305503  72.7082776  35.9998304   8.1772148
  71.8688633  36.2346441   7.7816403  73.1253030  36.8395025   8.3702767
  53.3074952   9.6721553  65.2580643  54.1588832   9.2411136  65.1833916
  52.7051950   8.9711856  65.5072975  34.9900031 105.6233501  71.4195585
  35.2606702 105.3250408  70.5512381  35.1783347 106.5618420  71.4198780
  39.3721962  64.4944096  51.9093227  39.3453884  64.0319395  51.0716867
  40.0710535  65.1399946  51.8042183  26.8647003  70.0197029  90.6373692
  27.8054357  69.9409294  90.4791260  26.4603829  69.5055485  89.9385071
 100.5786227  82.5786304  64.4294500 100.4239975  82.6453495  63.4871817
 100.6481181  81.6383743  64.5947695  68.7651873 101.8657589  51.7608166
  69.3574905 102.5446320  51.4374733  69.3100834 101.0810566  51.8204832
   3.7519792  68.5364532  43.1624365   3.5573736  69.4731903  43.1921387
   2.9751015  68.1429100  42.7651739  23.4456495  45.3427298   3.6668789
  23.1612685  46.0515959   4.2438328  22.6864866  45.1672632   3.1108963
  56.4614534  86.6906738  42.7148056  57.0649815  86.3572216  42.0508814
  56.0996485  87.4890709  42.3302412  21.0595751  97.3465061  71.8668556
  21.6162300  98.0058289  72.2811794  20.8768868  96.7155170  72.5630665
  32.8923368  80.0027561  54.6589279  33.7365913  80.3537655  54.9422169
  32.2448325  80.5772877  55.0674295  26.4263940  94.9091053  76.2298870
  26.7150998  95.1375675  75.3463268  25.9643579  95.6880188  76.5397978
  15.1000884  26.1481125  34.3169033  15.5362752  26.5237266  35.0816834
  14.1815570  26.3975174  34.4185173  25.7930183  63.0312490  62.0326328
  25.6613731  62.2425699  62.5588369  26.3202524  62.7380896  61.2894535
  29.7465229  97.0556068  60.8997488  28.7962174  96.9461823  60.9340906
  30.0263429  96.4938259  60.1770210  26.6421533  84.8841572  37.3020959
  27.5524020  84.5964718  37.2319937  26.6757083  85.6463909  37.8801203
  26.9538355  95.1004124  57.2900248  27.5589228  95.7935429  57.5539827
  26.7856956  94.6100044  58.0946779  95.4029416 101.9421768  71.5819788
  95.9118663 101.3265705  71.0544872  94.5500492 101.5203094  71.6860723
  55.1758051  86.7434883  39.0230656  54.6026802  86.8746090  39.7784257
  56.0333347  87.0510387  39.3168139  21.1375713 104.8235226  55.6175232
  20.7160473 105.2262020  56.3767338  21.0084701 105.4543591  54.9092817
 110.0674869  11.7095739   5.4963505 109.8797824  11.2578852   6.3191330
 109.3112208  12.2798569   5.3582585  33.5496426  49.2884970  66.3465691
  33.8560462  48.7563896  65.6122589  32.6371074  49.0262747  66.4680243
  40.4215336  88.9517021  50.3589535  40.6744766  88.8500786  49.4413853
  41.1087179  89.5000744  50.7375050  29.0972304  98.4020519  26.1253166
  29.8328376  98.7741756  26.6117668  28.5222983  99.1477013  25.9530210
 110.6179027  90.0337124  58.4920597 110.6602381  90.0393200  57.5358152
 111.5282324  90.1274872  58.7726641 105.1514117  94.2605495  33.5877490
 105.7305787  94.4810009  32.8582311 105.1588152  95.0399208  34.1434073
  25.7234621  93.9965630  21.8553877  25.4710102  94.8889828  21.6185641
  25.8779502  94.0338612  22.7993011  28.9128923 104.9149418  63.0097198
  28.5873747 104.4244671  63.7645054  28.3265018 104.6700001  62.2939157
  38.3072734  89.5977211  91.0157299  38.6921906  89.8185730  90.1676178
  37.7162743  90.3258705  91.2074375  60.0936890  13.7898063  13.4428573
  59.3685151  14.4145488  13.4356534  60.3389407  13.6968994  12.5222850
  21.6327405  51.9729233  15.5327964  21.8547678  52.7432299  15.0097644
  21.3666511  51.3155174  14.8899579  27.5530028  93.2224560  87.2798157
  28.0827856  93.8564014  86.7964077  27.2436428  92.6102543  86.6121864
   5.5720574  71.8874025  68.4801769   6.0416400  72.6209164  68.8772678
   4.6980920  72.2328281  68.2982540  30.2606988  81.3470268  21.7163348
  30.4598475  80.4726028  22.0509171  29.9039197  81.1932278  20.8415270
  26.1112261  88.7211609  48.9861679  26.1868978  89.6048260  48.6261129
  27.0088911  88.3890057  48.9963770  72.3033477   4.2150020  74.9279451
  72.7799774   5.0447368  74.9524689  71.3886667   4.4678211  74.8027706
  26.0159373 106.8971252  51.1238003  25.1858759 106.8001461  50.6570816
  26.5729475 106.2046146  50.7682753  38.6691260  93.9641476  71.6380262
  39.0110636  93.7222481  72.4987173  38.9359331  94.8760605  71.5219593
 110.8341250  82.2837067  75.3985882 110.7255955  82.1061420  76.3328934
 111.5518478  81.7111969  75.1277733 111.9168933  68.9581108  55.4768658
 112.4015839  68.1488228  55.3145170 112.2095589  69.5548582  54.7880459
  29.3707395  68.7464237  50.3838968  28.7878203  68.7442780  51.1431265
  29.8479342  69.5735025  50.4506493  61.6883851   4.6657085  40.1529646
  61.3793970   4.4279575  41.0271692  61.8500210   5.6077766  40.2040482
 104.3917195  91.9532490  36.3195348 104.6639495  91.0460377  36.1813450
 103.8818680  92.1717930  35.5394554 105.9050517  65.8779240  65.2750111
 105.5262624  66.6588449  64.8713827 105.1508741  65.3876972  65.6023073
  63.5772753  75.2530289  78.7821436  62.7151203  74.8382759  78.8121748
  63.4241104  76.0928154  78.3490944   8.2520270  66.9025326  30.1606631
   9.1264319  66.5163517  30.1105189   8.3055162  67.6880026  29.6162367
  20.0463247  81.4683342  88.7481022  19.3155646  81.9342422  88.3417130
  20.6970716  82.1484566  88.9218330  66.7202068   3.9307880  43.8913250
  65.8922745   4.3435382  44.1370916  66.8214274   3.2089519  44.5117617
  89.2103030  43.1254656   4.7058689  89.7717025  43.3730966   3.9711964
  88.4273423  42.7580053   4.2957699  89.0738965   3.1624317  60.7506990
  89.6391965   2.4230003  60.9740925  89.6367408   3.7506961  60.2473259
  93.5490479  36.1632807  15.8240044  92.8919257  36.7877180  15.5165970
  93.1391861  35.7347185  16.5753948  15.0161493  75.9318399  70.0269508
  14.7795022  75.3943491  70.7828140  14.6522450  75.4627228  69.2761278
  25.0820565  90.0628757  69.9558973  25.8619642  90.2398014  70.4818964
  24.3822098  89.9433899  70.5979013  53.5756613  11.9653510  38.8772392
  53.3581663  12.5859546  39.5727849  54.2810489  12.3901462  38.3891749
  61.5771770 101.6310024  87.9260445  62.0483685 102.0267296  87.1928215
  62.0469761 101.9327831  88.7034988   9.7635591  65.0615263  47.9387856
   9.1376370  65.7812405  47.8583908   9.8031890  64.8823881  48.8782406
  80.8390903  94.2775822  42.8609467  79.9084616  94.1851139  43.0649328
  80.8710480  94.3278503  41.9056034   6.4043707 107.1393394  88.4722519
   6.0129607 106.9246387  89.3189716   6.7106569 106.2994862  88.1301117
  19.1808820  70.2431250  43.4107256  19.0762234  70.4593706  44.3372869
  18.6047935  70.8568478  42.9549885  31.0793900  97.6782608  56.4928675
  31.6470504  97.4559498  55.7549191  31.3519359  97.0841694  57.1921635
 111.5548860  58.3924484  73.4792376 110.8987330  58.2299566  72.8015280
 112.0448558  59.1507912  73.1613159  67.0796061  88.1305885  33.8434267
  67.5658226  88.6474133  34.4858551  66.1667538  88.1976509  34.1234899
   9.8460829  96.2290287  33.6872625   9.6108037  95.3012562  33.6769009
   9.6573097  96.5339184  32.7997732  55.7663489   3.3162784  67.4374676
  56.4077438   2.8808212  66.8760204  54.9197746   3.0991649  67.0470762
  19.8173678  46.1857796  88.7513351  20.6425595  46.0292149  88.2922268
  19.1538060  45.7725191  88.1989479  67.3620129  40.5190277  87.7622032
  67.4510909  39.5705890  87.6686382  66.5714837  40.7352924  87.2677135
  42.3829603  72.3446274  29.8392558  43.1364965  72.6520729  30.3431296
  41.6276836  72.7464724  30.2685690  36.4745021  65.0186110  50.3933001
  36.7624354  65.0555086  51.3054228  36.5325832  64.0918207  50.1611042
  91.3191913  93.7357903  69.8602009  90.5567501  93.1596375  69.8057747
  91.6137122  93.8295364  68.9542723  39.8945294   1.1235427  53.2250023
  40.7737673   1.3816261  52.9482937  40.0280071   0.6767368  54.0609312
   6.3474852  50.0736332  51.2170029   6.1053056  50.5382681  52.0180607
   6.0928059  49.1655397  51.3805246  17.6715302  95.3016376  67.0321083
  18.2374120  96.0130596  67.3319292  17.9353583  95.1521587  66.1242104
  51.5549994  79.8007631  59.4294691  52.5000858  79.9396896  59.4906569
  51.2727404  80.3817844  58.7230873  78.9681149   3.4344196  57.4672604
  79.0376664   2.5520420  57.8316832  78.0329562   3.6354350  57.5033569
  37.6508760  66.9747210  26.8704629  37.2464204  67.3008060  27.6744008
  37.8861523  66.0688400  27.0710897  30.1419997  85.5609131  46.8828773
  29.6189904  84.7592831  46.8734455  30.8807397  85.3581810  47.4568033
  10.2090073  88.3971977  57.7282190  10.7998836  88.5710335  56.9954967
   9.7745883  89.2347622  57.8894854  51.3799394  28.7612533  55.0951099
  52.2140873  29.2280483  55.0447464  51.5163077  27.9701709  54.5737457
  65.6830962  15.8584053   0.8308518  65.0416781  16.5677578   0.8712971
  66.5212621  16.2826330   1.0145485  67.1183611   8.9137744  70.2457047
  67.6216365   8.1064701  70.3516293  67.7752329   9.5812892  70.0477839
  71.6126777   2.8372573  51.8209553  71.9994021   3.0827903  52.6614237
  72.1777964   3.2496642  51.1676693  46.1467266 101.6164017  71.4466190
  46.0456181 102.5275326  71.1712217  46.9920015 101.3494110  71.0854340
  57.7878475  69.3511677  65.1515722  56.9973803  69.6965885  64.7367477
  58.4948063  69.5812035  64.5486498  94.1232015  10.3398704  77.4903727
  94.4197799  10.6799697  76.6462135  93.1785632  10.2270984  77.3846436
  41.5995932  79.9347878  79.0711308  42.4913168  79.8003006  78.7502337
  41.4294720  80.8650208  78.9229822   1.2459505  96.9564438  54.1668415
   0.5234126  97.5836754  54.1396141   1.3296242  96.7274952  55.0924873
 111.0449363   4.9366378  39.1598153 110.6563712   4.0848159  38.9606881
 111.7654324   5.0230407  38.5355949   8.8154864  97.8031921  85.5595398
   7.8942513  97.7867603  85.3001499   9.1328984  96.9198322  85.3720474
  23.6450648  94.6276760  81.9140053  23.9512563  95.4490566  81.5295506
  23.6900067  93.9958858  81.1963272  24.3666196  60.0893593  91.8249893
  24.1773081  60.9843683  91.5432930  24.7644997  59.6761751  91.0587025
  74.9756763  18.6721546  13.6308300  75.4635321  19.4811947  13.7847054
  74.1479562  18.7997419  14.0943253  38.4344244 105.1146507  62.7985811
  38.6109948 105.6939602  62.0573282  38.1155419 105.6976509  63.4875393
  17.8095436  97.2652054  44.2664623  18.4459519  96.6401863  44.6136999
  17.4296284  97.6764965  45.0428247  21.2192607  61.6999769  76.2158823
  21.0775781  60.8326054  75.8366442  21.3793468  61.5321112  77.1445465
  37.4491644  90.0022697  32.8569007  37.6342010  90.4368687  32.0243645
  36.7538524  90.5280876  33.2522273  57.2049261   5.9060859  78.6066008
  56.8668199   6.7232704  78.2403708  58.0475140   6.1467647  78.9917660
  41.5576172  91.0106945  71.5964317  42.3245621  90.4643440  71.7682743
  41.8834114  91.7090988  71.0286999  49.8604048   5.3195953  59.3750286
  49.3741227   5.4841899  58.5671473  50.6001175   4.7764491  59.1028976
  26.6576899   5.8499622  60.1105070  26.6879786   5.5360603  59.2067480
  26.8085111   5.0675964  60.6409693  48.0437374  50.5047226  22.9452944
  48.7363863  50.1905537  22.3641133  48.3904505  51.3173008  23.3137226
  33.3687833  38.8325960   3.4524452  32.5892309  39.1448004   3.9118492
  33.9662936  38.5635263   4.1501724 103.9597212  62.5794411  63.6378574
 103.6512612  61.7524576  63.2674789 103.4260444  63.2480431  63.2084465
  21.7925382  58.4624672  83.5574055  20.9937572  58.6613035  83.0688858
  21.5614676  58.6271763  84.4715786  35.6404448  91.6552353  36.7561603
  36.1359906  91.5280628  37.5651670  34.7302461  91.4945221  37.0050430
  28.1920648  52.6454306  71.6712284  27.3730659  53.1150436  71.8291378
  28.4837961  52.9544258  70.8135271  59.7080303  12.6120185  60.6270552
  59.9049545  11.9546604  61.2943888  60.5540396  12.8031349  60.2221107
  44.7390270  68.5687542  62.0460510  44.7331476  69.5233536  62.1163177
  44.5411968  68.3951139  61.1257553 103.6565344  89.0165615  61.4433479
 103.8006626  89.1892815  62.3737383 102.7207409  89.1702652  61.3133621
  72.0636345  20.1462840  45.6407976  72.9329420  19.8794174  45.3419399
  71.9813348  21.0563754  45.3558540  29.1536140  72.8563023  49.4999075
  29.5358467  72.0803785  49.9098730  29.8983121  73.4380102  49.3473387
  15.1923895  69.7604322  35.7119417  15.0791252  70.6734705  35.9760785
  15.6862509  69.3631029  36.4292026  19.1181087  55.6903982  71.1284828
  18.2907844  55.4686832  70.7011557  19.7804272  55.2094555  70.6322384
  42.2620058  83.3988953  36.0852146  42.0004225  84.2591381  35.7568955
  43.0771494  83.2038212  35.6229115  53.1126785  59.3484783  60.9235334
  53.3709145  58.8747072  61.7141581  53.1037140  60.2684450  61.1877632
  32.7495456  56.0442257  79.2265081  33.2722783  55.6974077  79.9494886
  32.9917288  56.9690037  79.1779184  63.5940553   1.3303184  67.2155046
  63.8630415   2.1989917  66.9167185  63.4443355   0.8356380  66.4098263
  22.9249862  49.2530615   2.6340687  23.3340362  48.8983709   3.4234345
  22.8598455  48.5045225   2.0410359  28.1047845  82.2215080  55.3332663
  27.5991106  81.5768623  55.8281994  28.8880515  81.7478275  55.0533533
  15.0166774  98.6079979  50.7642555  14.1419637  98.6949730  51.1431313
  15.2561855  99.4985294  50.5076933  48.1759357  88.3790684  69.1455650
  47.8494644  88.3077049  68.2485962  48.6010122  87.5380039  69.3133593
  73.2479571 101.2117481  34.1491079  72.3499249 101.4818859  33.9572930
  73.7710355 102.0005703  34.0063548  30.6213045  95.6965923  46.4777231
  29.8376799  96.1232758  46.1311579  30.6250763  94.8322201  46.0665321
  36.9143271  94.2185402  67.4811411  37.1374440  93.5801125  68.1585312
  36.7918277  93.6947536  66.6893864  25.9148192  95.3793049  73.5328388
  25.9926128  96.1057281  72.9143810  24.9723411  95.2319241  73.6118746
  45.9901083  30.2709102  63.2144070  45.2796645  30.8097457  62.8663349
  46.4022309  29.8884105  62.4397612  18.6085069  48.8552952  64.5521832
  19.0222061  48.4320354  65.3044748  18.1415653  49.6031141  64.9249554
  35.4916739 102.9604530  73.1441212  36.1654663 102.6694393  73.7585640
  35.8466315 103.7630272  72.7618790  79.0323449   5.6731319  78.1937885
  79.8969794   5.4973220  77.8226614  79.1442824   6.4855098  78.6874866
  32.9222012  95.9487724  30.1779413  32.4699450  96.7698860  29.9843407
  32.9423785  95.4835033  29.3416739  75.7273674 105.5409145  35.4091907
  76.6483831 105.3454876  35.5817389  75.6430721 106.4769745  35.5906177
  19.9864447  94.4144535  92.2051430  19.5854294  95.2466583  92.4558353
  19.6117306  93.7757111  92.8116226  21.3736057  87.3077679  79.2390537
  21.5706992  88.0594826  79.7978973  22.2255111  86.9057560  79.0691137
  23.6943483 102.4653912  52.4380779  24.4411731 101.9290638  52.1719170
  23.1037569 101.8528748  52.8765440  48.0203676  65.8026695  53.7240553
  47.3655987  65.9559011  53.0428553  48.3148241  64.9040890  53.5754538
  16.1691868  65.2719545  12.8240299  15.7039547  66.0710287  13.0715692
  17.0675623  65.5588484  12.6601863  12.6749110  63.0205441  77.4612617
  13.2773781  63.3209133  78.1417322  13.2159030  62.4833202  76.8825102
  49.6831299   2.5548934  55.8480740  49.2231251   2.5879669  55.0093031
  50.4962421   2.0873641  55.6570387  46.2685490  82.0435238  57.0383883
  46.2980700  81.0871124  57.0638609  45.6257582  82.2811890  57.7066422
  42.8313112  90.7412720  67.4597073  42.0016575  90.8998871  67.9099798
  43.0736303  91.5932560  67.0969057  60.6865120 101.9606590  83.5411263
  61.4120007 102.5850391  83.5479832  60.5614662 101.7489433  82.6160431
  39.6196508  57.9774237  50.9486580  39.6057582  58.7798834  51.4702940
  40.1982784  58.1796598  50.2134562  25.1099873  85.0201511  87.7344418
  25.5540633  85.7730579  87.3443604  25.4278064  84.9958134  88.6370087
  46.5571976  56.5154934  56.9654655  47.2960711  57.0837545  56.7478085
  46.1767101  56.9077730  57.7513266  37.1880198  99.4004154  53.7545204
  37.2979140  98.9552975  54.5947742  36.3630962  99.0593910  53.4089136
  33.3604026  64.7530031  66.6918659  34.2022657  65.1983070  66.7877960
  33.1660318  64.8071957  65.7561779  35.1756668  75.9607506  58.5130310
  35.7432485  76.7277050  58.5895824  34.7942162  75.8571100  59.3848038
  96.1020623 100.7456684  89.7486877  96.8781589 100.2200031  89.5548248
  95.3821729 100.1148987  89.7596836 109.2390083 101.7114353  49.1040850
 109.5191203 102.5107193  49.5500851 108.5157199 101.3808250  49.6367979
  28.0377296  33.5247976  13.6255753  28.8825658  33.3718092  14.0487492
  27.5952533  34.1544134  14.1948139  49.5698357  91.1558723  77.8088570
  49.1408730  90.5662441  77.1887302  48.8508844  91.6376591  78.2177925
  48.5738611  75.8023548  60.8551407  49.0744495  75.6512737  61.6568995
  48.8506079  76.6697931  60.5598593  52.7680922 103.3068752  58.7648392
  52.9039621 103.8964081  58.0230761  51.8211222 103.1698799  58.7915850
  16.4017904  73.1430054  56.3232994  17.3334253  73.1660604  56.5418339
  15.9610879  73.4314966  57.1225405 107.9260866  77.0503283  77.6202917
 107.6868276  76.4478350  76.9160223 108.8605438  77.2118568  77.4901772
   4.1942406  80.9133816  51.4947271   4.5339590  81.2398434  50.6615114
   3.2572377  81.1064720  51.4634943  69.4222641  68.1271219  61.0105562
  70.2238560  68.4959650  60.6395674  69.7268152  67.5375557  61.7004061
  57.2966862  83.2259464  58.1178808  58.0164528  83.6443233  57.6455212
  57.2061443  82.3672676  57.7047157  38.2761025  84.2261791  68.2713509
  38.8606405  84.2975616  69.0259695  38.2694030  85.1039696  67.8896904
  16.9669712  53.4985113  75.4531765  17.8637421  53.6457396  75.1525831
  16.4195132  53.7771177  74.7190809  28.2889819 106.5455627  53.1800461
  27.4188733 106.6407967  52.7926540  28.2188582 105.7717705  53.7391233
  57.0032740  81.1011505  83.7171173  56.4743137  81.4746475  84.4220543
  57.0734930  80.1721573  83.9367962   9.0742624  97.2715759  38.9456367
   9.7654647  96.6463184  38.7276435   9.2586827  98.0335712  38.3964705
  52.3432970  78.7218285  77.2363186  52.9693413  78.0200768  77.0578671
  52.7165651  79.1919279  77.9819059  15.2266765  62.5726557  48.7802505
  16.1264122  62.7078438  48.4828758  15.1092839  61.6228199  48.7642193
  26.7907715  77.0642138  27.0340991  26.8777347  76.3521099  27.6677966
  27.2340918  76.7419529  26.2493420  19.0796864  91.9053078  66.4885807
  18.8774681  91.6801167  67.3966742  19.5785999  92.7199459  66.5492344
  34.5673895  81.8919945  41.9669771  35.2207947  81.3353539  42.3905754
  35.0513291  82.6772213  41.7111254  35.0868988  69.1994476  42.2899628
  34.5963883  69.0340090  41.4848137  34.5107293  68.8906336  42.9891729
  27.5439906  66.4663029  35.0260758  27.3915601  66.4370680  34.0815449
  28.2913136  67.0553255  35.1299667  40.2290154  85.5836010  75.9047365
  40.3403854  85.8207417  76.8253803  40.7883072  86.1982441  75.4297304
  37.2796369  77.5267649  66.8393373  37.2421050  77.0659924  66.0011768
  37.6761985  78.3724737  66.6301823  16.3349891  86.8337822  77.5217962
  17.2253501  87.1049023  77.7453709  15.8558798  86.8792629  78.3492136
  43.4318018  97.4060154  51.0124159  43.4039736  98.3057976  50.6870890
  44.0596390  97.4317074  51.7344904  13.1682980  83.1289005  22.6962256
  13.5639596  83.0326462  23.5624933  12.3171616  82.6976299  22.7724028
  26.1163712  84.0501976  80.3202152  25.3551602  84.5444584  80.6243515
  26.0218859  84.0267658  79.3679810  36.7696167   9.4624042  50.4869747
  36.5390959   8.8772773  49.7653627  36.6716895   8.9241409  51.2724161
  55.5541182  51.3961077  65.9414434  54.9218655  50.7324696  65.6656361
  56.0914564  50.9559298  66.6000414  65.6377029  73.0825138  63.6624622
  66.0401964  72.2152567  63.7082815  66.3746071  73.6828995  63.5496044
  48.2119417  85.3202057  66.3725758  47.7476263  84.5229912  66.6277075
  48.0093098  85.4284286  65.4433537  95.9977294   5.0604438  33.5358953
  96.1150981   4.2181014  33.9751101  95.4997731   4.8511886  32.7456546
  93.8221789   2.4280548  29.1144753  93.4444285   2.2340392  28.2566333
  93.0832673   2.3701953  29.7201943  40.2093124  75.4682827  70.3848982
  40.3155088  76.4092445  70.5247068  40.9269667  75.0704145  70.8777571
  26.3227820  59.9209023  22.7364635  25.6469226  60.5917311  22.8336287
  26.0037589  59.3601513  22.0293498  73.4088827  38.8445949  38.3983564
  73.6319638  38.7718677  39.3263531  73.2188178  39.7738933  38.2698321
  24.4925547  52.3675585  44.1200256  24.3201041  51.4982986  43.7582541
  24.1355562  52.9726791  43.4699392  48.6432934  98.5840130  79.0338993
  48.0573606  97.8828144  78.7488842  48.6775684  99.1848660  78.2895660
  93.5727073   7.8799152  53.2822132  93.9907695   8.6123943  53.7349176
  93.5504771   7.1777725  53.9323902  55.0058044   4.8698043  26.5893555
  54.3045081   5.3603076  27.0180988  54.5515133   4.2705726  25.9970880
  76.4885712  24.1297817  39.1099739  75.7240511  24.3256950  38.5683489
  77.1162392  23.7351703  38.5045433  88.4724189   4.6885776  53.5051727
  87.9319716   4.1013717  54.0336895  89.2134143   4.9060535  54.0707350
  98.8185502  14.3928050  32.9693413  98.3785010  13.5615539  33.1471419
  98.8656665  14.8259639  33.8216233  67.8646183  91.8071365  38.0020928
  67.0179319  91.6796780  38.4300017  68.3262491  90.9788990  38.1330419
  16.9024074 103.9896870  53.6280966  17.8441858 103.8245296  53.5832834
  16.8010306 104.8863602  53.3088303  54.4490553   1.8815231  76.4913082
  54.5304323   2.7970409  76.2240219  55.2563990   1.6997909  76.9723511
  54.0418243  72.7291203  61.3478565  53.2061958  72.2626400  61.3666439
  54.2151642  72.8726006  60.4174852  62.6033401 100.3716660  79.5442247
  62.2214937 101.1727715  79.9028969  63.0409431 100.6536961  78.7409830
  92.9855491  38.6057567  76.9919491  92.9770661  37.6659393  76.8105507
  93.4570266  38.6853885  77.8211641  59.2131805  89.0113735  81.3405514
  58.7293053  89.8220348  81.1826897  59.0434074  88.8062763  82.2599792
  28.9800143  88.8899899  72.4828529  29.1115022  89.6965790  72.9812145
  29.7540355  88.3607292  72.6752138   5.2336520  87.3020744  30.3638959
   6.1065012  87.3872185  30.7474542   4.6462527  87.6782703  31.0193896
  50.5519724  96.4639759  64.3496466  50.9231043  95.8604622  64.9932766
  51.2157679  96.5189075  63.6621952  41.0805225 104.2719936  30.6671000
  41.9091082 104.6361923  30.9786129  41.2621450 103.3413696  30.5360484
  48.7828350  95.2157116  40.4865074  49.5271540  95.8128929  40.4117155
  49.0813398  94.5353413  41.0900164  52.5979722  23.0319309  76.0486460
  53.1297768  22.2381305  76.1061335  51.7093623  22.7138709  75.8891392
  57.8237272   2.9651832  40.6099510  56.8956793   3.0372905  40.3868866
  58.1302501   3.8708496  40.6551981  59.5828629  86.5734577  52.4906015
  58.9333153  87.2763634  52.4753380  59.0884161  85.7960224  52.7501249
  79.5680858  14.6516036  58.7800789  78.8758994  15.1184368  59.2482471
  80.1623202  14.3517398  59.4679737  92.5290824  15.9160900  27.6787090
  92.2959042  15.4243659  26.8912578  93.1632567  16.5660953  27.3761678
  63.1822109  94.2395496  67.1321583  63.3522463  93.8295650  67.9802322
  63.9222431  93.9751625  66.5856409  81.3148881   0.8338928  15.3109670
  80.5189658   1.2065601  14.9316859  81.1104203  -0.0931264  15.4336441
 109.5015784  93.0063725  55.3835440 108.9647905  93.3229351  54.6569872
 109.3891431  93.6648846  56.0690737  56.3802195  24.0017414  67.2041988
  57.0077444  24.7239303  67.1743679  56.7315794  23.4063339  67.8662109
  65.9562326   9.6496391  57.9240036  65.7721568   9.8827648  57.0140600
  66.6585589   9.0017032  57.8678846  90.4125881  79.5608473  38.0833864
  90.1623917  80.4673481  37.9047966  90.4783726  79.1557312  37.2186399
  60.8372879  74.4763374  50.9427214  60.1615143  74.0374470  51.4593840
  61.0985041  75.2260208  51.4774799  35.8610892  96.0837078  76.2298393
  35.0262141  96.3577557  76.6094589  36.4583302  96.0328293  76.9761324
  53.1073761 104.2207718  78.1115484  52.3353815 104.7819042  78.1849670
  53.8451672 104.8038864  78.2900572  86.0140420  18.8736534  62.0463848
  85.6338597  19.1377925  61.2085819  86.2314845  19.6981525  62.4813032
  48.4738780   1.5242767  61.8323851  49.0243781   1.8277358  62.5542545
  48.3073784   2.3098945  61.3115072  88.4045888  13.9551925  72.7275705
  89.2043496  13.4319019  72.6748133  88.4051848  14.3043613  73.6188126
 111.6714240   2.1404266  46.0512161 111.3305999   3.0216598  45.8979082
 112.6217032   2.2369480  45.9888554  42.9849697  28.0582809  50.2815485
  43.7857790  28.1851482  50.7903099  42.5692207  28.9204025  50.2703428
  19.0425026  89.9593449  92.4339676  19.6586978  90.1752949  91.7340469
  19.0927899  89.0066433  92.5118542 106.0807324  34.0457820  63.4105635
 105.1879073  34.3113422  63.6309338 106.1923934  33.1991195  63.8429117
  34.0617609 101.7246628  37.2202921  33.1804419 101.8970871  36.8889642
  34.6377015 101.9169521  36.4803267  31.9866204  84.4571972  69.1070509
  31.2988281  84.2760181  68.4664726  31.9138908  83.7464619  69.7440672
  69.7151566   0.2666950  69.7778416  69.5425440  -0.0582314  68.8941813
  70.1814366   1.0916709  69.6428537 106.6273928  19.5516776  59.2545938
 106.6053439  18.6817932  59.6534014 107.4393273  19.9426078  59.5773315
  46.5246105 102.3177719  62.9026461  46.1993599 102.5601387  63.7696505
  47.2824097 102.8858089  62.7637053  99.9373628  46.5173418   2.0468819
  99.6629931  46.5005285   1.1300003 100.2823426  45.6394464   2.2097885
  30.1454091  84.1419125  76.4669085  30.4734278  84.1761494  75.5683184
  30.7082152  84.7465611  76.9505262  53.6658859 100.4765987  71.8067217
  54.4313812 100.9728813  71.5169811  53.5604715  99.7917175  71.1463785
  92.2033263  12.9210090  50.5139589  91.9207240  12.0474719  50.2432203
  91.5014745  13.2335662  51.0848713  56.6310310  76.8013954  58.3856726
  56.7303133  77.4317169  59.0991640  56.9728279  75.9811306  58.7414408
  39.5571709 105.4941845  28.6335397  39.8531699 104.9562931  29.3679023
  38.7735200 105.9358597  28.9607239  11.6658390  84.1291046  67.4665594
  11.6288650  85.0646877  67.2677183  11.5744448  84.0827084  68.4182596
  47.5476122  82.6183128  67.3265743  48.4303427  82.5177288  67.6828146
  47.0138407  82.8756237  68.0783081  45.0370169  84.5023823  52.4248028
  44.8111343  85.3453255  52.8180647  44.4180298  84.4019318  51.7016220
  50.1177073  10.5442428  47.2111845  49.4144262  10.0806236  47.6658058
  50.1841701  10.1060104  46.3627958  81.2839331  53.9909918  31.4950192
  81.1160304  54.9291212  31.4059269  82.1463122  53.8634092  31.0997212
  66.8571401   3.6257743  39.9153423  66.8937803   2.9228210  40.5639982
  65.9269715   3.7100505  39.7057843  34.2739010  87.2465324  43.6155415
  35.0666952  87.2158432  43.0800343  33.5698581  87.0006847  43.0154467
  39.6466899  82.7229404  38.5553312  38.8068986  83.1115818  38.8001513
  39.4140458  81.9868183  37.9894376 102.1917725   9.6479701  75.4980612
 103.0426885  10.0371646  75.6998014 101.8406106  10.1920604  74.7931623
  83.4245492  24.9974441  15.0973356  83.9243842  24.4406413  15.6943023
  82.7525569  25.3975963  15.6491804  50.1845455  93.6565018  57.8411150
  50.7859421  94.2093086  57.3421621  50.2078962  92.8113365  57.3923540
  50.6843328 105.4008961  67.5400686  51.1282873 105.3101254  68.3832169
  51.1725235 104.8273373  66.9493580  39.5671773  97.2655869  12.1824694
  40.4057312  97.5957680  12.5050151  39.0632677  97.0775223  12.9742646
  62.9064275   8.9399433  13.8633931  62.9805470   9.2121124  14.7780871
  61.9648743   8.9327812  13.6911798  55.7639933  73.4540701  80.6332302
  54.8616457  73.3500767  80.9351921  55.9460115  72.6529408  80.1420212
  93.3785106  15.4045104  38.3134151  93.9774133  14.7068977  38.5796356
  93.3978463  15.3846168  37.3566175  71.9604994   5.3382968  89.7468185
  71.9670821   5.5802726  90.6729031  71.8808628   4.3844127  89.7490692
  55.6886244  92.3645878  82.4617195  54.8419237  92.8037167  82.3811245
  56.1855459  92.9121971  83.0695248  68.4282446  96.9257259  78.1178331
  68.3255243  96.3771534  78.8954926  68.8716602  97.7119923  78.4362459
  39.4399691  73.5415554  33.9228773  39.6362019  74.4664764  34.0720105
  39.6207380  73.1198788  34.7629642  33.9412740  35.4930288   7.5207245
  33.6629728  36.2275869   8.0677235  34.5676759  35.0141222   8.0634129
  39.6703649 104.8381138  68.7159395  39.2156124 104.7862911  67.8752565
  39.5840573 105.7544518  68.9788389  35.6982827  88.1596851  75.6034803
  35.3863955  88.7639713  76.2771177  35.9889460  88.7266445  74.8891211
  24.8058128  86.9720554  61.1688709  24.1235852  87.1784496  61.8077707
  25.6134343  86.9429207  61.6818333  39.9643493  76.9361162  51.6345119
  39.6187878  76.3703537  50.9440517  40.1428795  76.3423300  52.3637438
   4.2240097  11.3329601  66.7232704   5.0548365  11.0435485  67.1003771
   4.4761279  11.8713664  65.9730768  18.5564995  82.8949356  83.7332153
  19.3342984  82.4844265  83.3553982  17.8223741  82.4133015  83.3520031
  23.8667393  99.9841881  44.9361515  22.9860592 100.3427505  44.8262882
  23.9078093  99.7279739  45.8575058 102.0349074   3.0181312  51.1776447
 102.0243121   3.2518291  52.1058178 101.4347173   3.6405754  50.7670736
  83.1190158  27.0020770  84.3762016  82.3870040  26.5556621  83.9506531
  83.6446286  26.2957382  84.7517776  32.1229839  90.2686119  38.9735556
  32.6310182  89.4773674  39.1526318  32.4885774  90.6082249  38.1567121
  91.7852212   9.2991256  49.4002151  91.5639401   8.7953662  50.1834679
  91.2497998  10.0899314  49.4648695  69.1005231   2.0567512  51.0543394
  69.0683747   1.2321090  50.5694056  70.0277043   2.1784686  51.2586737
  62.6319981 102.0442295  44.2703247  62.5199032 101.9226742  43.3275127
  61.8943834 102.5962353  44.5300245  59.1772009   2.5772380  43.0808020
  59.5008493   1.7991161  42.6269245  58.5481120   2.9650592  42.4724627
  45.4995441  59.6025991  51.4576340  45.1546049  59.4839811  50.5726576
  46.1799812  60.2690268  51.3621521  96.2977887   6.6451835  82.2418213
  95.5006266   7.1570968  82.3785973  96.8217135   7.1739768  81.6400719
  39.4397974  81.7433834  59.4955540  38.9310360  82.4238396  59.9364233
  40.3180742  82.1153545  59.4149446  50.8555555  99.9194336  40.6211233
  50.9260035  99.9138260  41.5757084  50.0825977 100.4545784  40.4411459
  35.8509874 101.3173676  50.2573681  36.0891366 100.8117580  49.4802713
  36.6783452 101.4487648  50.7204533 106.7108298   4.1206455  39.4269657
 107.1061612   4.9637889  39.6484542 105.7967473   4.2061710  39.6978259
  88.1813098   6.4485359  47.5713968  87.4092532   7.0018386  47.4529886
  88.9221907   7.0450591  47.4642134  68.9739180  70.9717083  43.9529991
  69.7706270  70.4608297  44.0961647  69.0742159  71.7359304  44.5205688
 104.8230601  53.5123157  26.6471243 105.7377387  53.7867450  26.5816927
 104.7387553  52.8053569  26.0073376   1.5698890 102.6725197  58.4588957
   1.3686894 103.3769417  59.0749645   2.2930598 102.1965313  58.8671827
 104.4681264   6.4215755  28.1944680 104.4677544   5.5273055  27.8531361
 104.7839261   6.9559383  27.4657941  14.9905956  80.6975079  45.9221363
  14.0572929  80.5193329  46.0380268  15.3300238  80.7855606  46.8127918
  72.3948145  91.5867805  52.1981716  72.0606661  90.6936359  52.1152735
  71.6937590  92.0646191  52.6413727  54.3199492  82.0142460  14.7637486
  54.7459126  82.1382046  15.6119370  53.5913134  82.6349735  14.7686589
  64.6794797  10.0633525  64.7914457  65.1699234  10.2521705  65.5914736
  64.7528959  10.8633708  64.2710543  72.6474501   2.9125404  26.3760638
  72.8111578   3.7203311  26.8627930  71.9055630   3.1211566  25.8083367
  26.2384915  93.3225060  41.1554718  26.3036537  92.3912239  41.3668919
  27.1455050  93.6277771  41.1362314  94.0773297   4.6839237  23.0842209
  94.9378920   4.8789882  23.4551811  93.8827849   5.4344272  22.5228524
  42.7761365  19.2420959  57.4634171  43.4073515  19.1530990  56.7493582
  42.0304934  18.7067317  57.1920776  54.0342308  21.0604762  58.7420654
  53.6795116  20.1729583  58.6899233  53.4835244  21.5008640  59.3893719
  96.3509179  28.5388755  35.0611830  96.2561894  27.6160335  35.2970386
  95.4656030  28.8960361  35.1310492  29.8647571  79.4906521  91.9308567
  29.0068436  79.7699070  91.6111183  30.1852703  78.8870144  91.2606907
  89.7798444   4.4812583  51.0281801  89.4274426   4.5711231  51.9136000
  90.2551938   3.6505603  51.0427523  55.0343026  16.1379623  43.7706327
  55.4530443  16.9344425  44.0969944  54.8779000  15.6111907  44.5543957
  36.6767454 102.0917130  89.6379471  37.1500611 102.7544308  90.1409435
  36.8442440 101.2725163  90.1038742  59.6392060  14.3540573  74.8453474
  60.0061417  15.1401042  74.4407320  59.8771501  13.6442756  74.2488432
  47.1365995  19.6121787  57.5745726  47.2864360  20.3170013  56.9444847
  47.1498091  18.8131236  57.0477343  98.0809174 100.2718353  46.6833448
  98.0611430 101.2105465  46.8694878  98.9635538  99.9969673  46.9316101
  50.1097870  84.8533726  33.5683274  51.0180521  84.6887684  33.3149505
  50.1646948  85.1515961  34.4762254 103.1491090   8.1758212  68.1086302
 103.8163567   7.5532627  68.3974886 103.2743646   8.9396285  68.6717844
  61.6380430   0.9421157  45.3378630  60.7474423   0.7086086  45.0760603
  61.5245128   1.6646099  45.9553862  74.8960186   2.5476455  30.3304458
  73.9562035   2.3866271  30.2464533  75.0943852   3.1758975  29.6360540
  47.2256660  91.8538475  54.7254133  46.8017340  92.2381496  53.9580631
  47.2413731  92.5614262  55.3698683  41.9417048  88.4157372  64.2065144
  41.9206905  89.3437576  63.9729118  42.3398256  87.9870129  63.4489346
  30.5092144  89.9005032  78.9696121  30.7524824  90.1447487  78.0766439
  30.2106404  90.7177734  79.3685532  78.1851054  19.8174667  72.9711342
  77.8032542  20.2895450  73.7111092  78.9970208  20.2872753  72.7805758
  45.9806585  96.9177818  67.8777075  46.0327387  97.8042603  67.5203896
  46.5583515  96.9328022  68.6407804  19.6822917  55.7251310  63.1796026
  19.8535895  54.9276686  63.6805391  20.5492258  56.0322428  62.9143858
  46.1732198  30.0506973  58.1566668  46.2821097  29.8587131  59.0880728
  46.7095024  30.8295631  58.0083656  63.4481884   9.2108249  85.4423523
  62.5513316   9.4810485  85.2452278  63.9901830   9.9380397  85.1363659
  73.5844851   1.5253639  60.6382036  74.3936110   2.0326709  60.7029152
  73.5069633   1.0888767  61.4865541  21.0699105  97.6727295  76.4061308
  20.3973126  98.3326626  76.5744209  21.2838817  97.3228455  77.2710180
  73.7275506  22.8444671  74.7663212  74.2605401  22.0787715  74.5521688
  73.1484915  22.9518508  74.0117407  37.9608512  67.0911598  42.7268934
  37.1879196  66.5284634  42.7735710  37.8319073  67.6098394  41.9328070
  47.3503256  87.9387760  54.6482372  46.6430092  88.5364246  54.4058561
  47.4236727  87.3404312  53.9047098  78.9756156   0.1052951  81.9163609
  78.9103890  -0.5237103  81.1977959  78.9239217   0.9611797  81.4908981
  95.1193810  34.2947292  32.5339508  95.2900411  34.7642421  33.3504415
  95.9029914  33.7627887  32.3952675  56.3660074   8.1045055  51.2070322
  55.6107772   7.8888511  50.6599045  55.9952999   8.5805797  51.9501114
  54.1475248  82.9896927  45.7931566  54.5181465  82.7085590  46.6297150
  54.8954773  83.3295631  45.3019524  22.8375769 101.3539219  63.5029554
  22.7241850 100.9163761  64.3467140  22.6207280 102.2698307  63.6770535
  26.7096162  99.7752190  74.5979071  26.1469626  99.1232109  75.0156927
  26.2818336  99.9602890  73.7618542  59.4338942  96.4142895  48.8615799
  58.6257076  96.8811989  48.6493015  59.2426634  95.9670734  49.6859980
  38.9677119 106.4501286  75.1539040  38.2369161 106.2149715  74.5821810
  38.7684202 107.3404598  75.4434347  84.1198731   3.3318805  72.0782661
  83.3939935   3.2415008  71.4608812  83.7208081   3.1994724  72.9381800
  76.5877248  12.0114707  83.6154175  76.2909127  11.8081092  82.7284050
  77.3329569  12.5989150  83.4898281   5.1131421 103.2111168  83.7908173
   4.5242763 102.5121212  83.5064507   5.7607740 103.2789326  83.0892372
  15.8737576  91.8557262  88.3244133  16.3926148  91.3180256  88.9226532
  15.4303706  92.4859905  88.8922215  39.4304681  96.9821644  71.0081196
  39.3055916  96.6983318  70.1025391  38.9568472  97.8119278  71.0665274
  40.0085402  94.5795536  84.3787670  40.9260941  94.7988605  84.2168045
  39.6042728  95.4103374  84.6289444  97.9885484   3.9247226  52.7132130
  97.8454543   4.0419006  51.7740488  98.6587096   4.5709037  52.9358387
  80.7677317   7.9181861  21.2040758  80.5976010   8.3198356  20.3520393
  81.1957980   8.6070918  21.7124152  74.4133329 103.6045170  81.1972046
  74.2483616 102.7003670  80.9297371  74.0030956 103.6780262  82.0589066
  78.6670590  22.6172447  63.4327602  78.9494897  22.6822376  64.3450308
  79.2141820  23.2496738  62.9670095  60.4396487   3.3535861  50.2943373
  60.4218746   4.2824840  50.0639915  60.0634075   2.9109287  49.5335913
  52.6279068  78.5917425  70.9377098  52.5260735  78.4071159  71.8713999
  53.5676193  78.5050583  70.7775211  53.6252069  98.8230419  54.5890856
  54.0374231  98.6308002  55.4313135  53.5679102  99.7781754  54.5629358
  25.3765154  59.8884535  37.6868033  24.6541190  59.4656849  37.2224331
  25.8168221  60.4129553  37.0180273 110.3809478  46.7484838  13.7860691
 109.6173860  46.3277609  14.1812908 110.7784130  46.0650904  13.2464134
   0.8186480  97.3499775  45.2056313   0.4009584  98.2001686  45.0680065
   1.2250748  97.1437359  44.3638992  58.4829569  91.8222523  35.2093244
  59.0248346  91.9143677  35.9929776  57.6189423  92.1350098  35.4774547
  55.5908931   5.4297828  51.5243864  55.0399233   5.7462024  50.8084679
  55.7364584   6.2004089  52.0731878   1.4222720  42.3809606   5.9563934
   1.5435508  43.2109816   6.4174664   1.7569259  41.7194731   6.5619290
  39.9908066  74.4609070  52.6523685  40.8224487  74.3852091  52.1845245
  39.5881605  73.5967731  52.5664759   6.8210602  93.4625149  27.7505112
   7.4122047  92.8845406  28.2329321   5.9679073  93.3320904  28.1644607
  13.4652793  94.0365982  55.7894373  13.9905214  93.8606739  56.5700817
  12.5764751  93.7808704  56.0361385  68.3056116  99.9725914  41.3368130
  68.9721203 100.6316376  41.1427736  67.5992203 100.4629230  41.7573118
  39.5870304 101.8857288  47.2076273  40.2859497 101.7099953  46.5776539
  39.8011541 101.3370419  47.9621649  54.7439718  64.5481777  53.9425373
  54.9944210  64.9133158  54.7911692  54.0602732  63.9106894  54.1484451
  34.9327493  84.8563480  89.6228027  35.7418704  84.5604610  89.2056656
  35.1945543  85.0925255  90.5126953   1.9404343  23.8717205   9.2647564
   1.4524010  24.3674309   9.9222767   2.1173218  24.5054848   8.5695660
  49.1221380  95.5067253  79.8402643  49.5878887  96.2098980  79.3876362
  49.2252636  95.7107067  80.7697773  29.0080881  87.9458714  48.5373831
  29.1263890  87.0034790  48.4184933  29.8783588  88.3167934  48.3915186
  34.1435099 103.6559105  31.3499236  35.1005530 103.6398602  31.3433576
  33.9154315 104.4997215  30.9598041   9.6691516  42.3118097   0.6489288
  10.2670244  42.7195627   0.0224125   8.8610748  42.8193933   0.5740654
 108.3650065  11.5229225  50.9793997 107.6721717  11.6481494  51.6278839
 108.5168029  10.5778694  50.9705496   3.1532338  58.4840948   2.7490914
   3.5841182  57.8470976   3.3189976   2.5972036  57.9556448   2.1765434
  97.5585080  23.9767932  71.1683226  97.0423508  23.4822845  70.5317163
  96.9079781  24.4396686  71.6963387  96.5348340   3.6895179  76.9967318
  96.9225407   4.0204620  76.1865520  95.9576703   2.9802513  76.7137909
  62.6512432  93.6130333  52.5050688  63.3859062  93.0550480  52.7603436
  61.9049263  93.2642841  52.9925346  55.1584936   9.4448757  53.2087994
  55.1403273  10.4016303  53.1859112  54.8820675   9.2212676  54.0975189
 107.9025160  83.9423275  24.0428782 107.3342918  84.6414852  24.3661928
 107.8658967  83.2700253  24.7232485  51.6978849  38.2261753  42.0385456
  51.9995643  37.8814315  41.1980820  52.0726777  39.1057205  42.0850801
  97.6516581  20.4220104  68.0846405  98.1346989  20.8957385  68.7617540
  96.8510152  20.1307868  68.5209751  60.7613803  29.3808460  50.3968477
  61.4414979  29.0638160  50.9911203  61.1171461  29.2267322  49.5216846
  26.0130596 104.9209785  72.8284168  26.4104390 105.7895756  72.8906155
  25.0753784 105.0780869  72.9393482  88.0838776   3.6386775  84.8545742
  88.9194060   3.9240074  84.4848156  87.6050521   3.2732677  84.1106415
  53.2888508  93.5196018  45.8394575  52.3996973  93.1810188  45.9443331
  53.4163141  93.5685253  44.8920441  62.0988417  62.4306393  86.0577583
  62.3960733  61.5915394  86.4096069  62.3550272  62.4079847  85.1357555
  51.5060472 106.4925003  64.2300177  50.5689096 106.3703346  64.3819332
  51.9232655 105.7916737  64.7310209  44.4451952  95.2115250  53.9116096
  43.6802816  94.7590733  53.5560465  45.1546478  94.5725918  53.8431931
  36.6431546  80.8801651  45.4964495  36.9367123  81.7080688  45.1161432
  36.6740704  81.0265827  46.4418793  52.0426321  77.5945950  67.6135778
  52.8435659  78.0996943  67.7536106  52.3076057  76.6841888  67.7446747
   8.6888507  66.1722357   4.5164120   8.0693248  66.6359026   5.0798237
   9.0230897  66.8450910   3.9232933  87.3883820  33.4450149  19.4674957
  87.0809747  34.0846157  20.1098680  86.8697358  33.6248493  18.6833441
  72.9203034  14.3949222  63.8241673  72.6702309  13.4746074  63.7422800
  72.4188424  14.8410224  63.1416941  80.1450063   7.5399112  75.5106974
  79.5534564   8.2853603  75.6136847  80.9407998   7.7997493  75.9748411
  41.9705982  26.0268592  82.0859432  41.4354653  25.9330272  81.2978649
  42.8685481  25.8917045  81.7831993  32.7497125 105.4934120  34.7088647
  31.9487691 105.9288788  34.4171619  32.8261089 105.7271194  35.6339431
  51.1798048  90.4499912  48.7734318  51.3596010  89.5099449  48.7877512
  52.0241070  90.8582783  48.9649820  10.2265799  88.0620670  81.8559361
  10.8578777  88.7043667  81.5316677   9.6525997  87.8921795  81.1089993
 101.0800982  15.2843189  73.0535603 101.1818219  16.2327766  73.1330490
 100.7360984  15.1535510  72.1699333  92.2151042  14.8760032  44.6681595
  92.8793288  14.4770049  45.2301550  92.0240451  15.7171153  45.0832033
  93.8178588  24.7967719  56.5686798  93.1229401  24.7351074  55.9133053
  94.3669511  24.0292644  56.4084911  84.4437743   0.1414489  66.1728764
  83.9874268   0.1682662  67.0138645  84.2324258   0.9782218  65.7588959
  72.8193475  16.4709472  49.0839672  72.5553418  16.4614581  48.1639433
  73.5082413  17.1340179  49.1286421  25.3571703  31.6092204  61.5572596
  25.6216624  32.2847270  60.9327936  26.0862544  30.9890270  61.5623093
  86.6209508  18.8733386  35.1027751  86.9635392  18.0735874  34.7037053
  85.6739283  18.7380123  35.1354718  57.4921560  98.9871216  69.4785643
  57.1381187  98.3563709  70.1055002  57.0489788  99.8089218  69.6894121
  86.3184977  19.2916488  20.0650764  86.5720797  19.2811965  20.9880161
  85.3897763  19.5232105  20.0744677  75.3905774  32.1820545  56.5100527
  74.5252276  32.2974109  56.1175013  75.6765009  33.0699729  56.7247057
  71.6343784 103.8910294  39.9627805  71.4582062 104.7022820  40.4392958
  71.3917875 104.0872765  39.0578675  65.6075765  23.8324260  74.7291470
  66.1017562  23.0993080  74.3623304  64.6920133  23.6167049  74.5518303
  98.5444094  37.5547392   9.1130268  98.5737516  37.7983934   8.1878197
  98.1867696  36.6668684   9.1156494  21.0393786  96.1669922  48.2724857
  21.7550373  96.5288639  47.7498865  21.4497137  95.4794216  48.7969923
 109.7357751  16.3854789  42.0874357 109.4192124  17.1787643  41.6553307
 110.6277133  16.2733173  41.7586565  46.7479086  67.4824905  59.8061466
  45.8325148  67.7517176  59.8823643  47.0499420  67.8879595  58.9933729
  47.9202700  69.4034672  57.5728083  48.2288170  68.8850451  56.8296623
  48.6895561  69.8977041  57.8559256 113.3318282  59.4604587  50.9138155
 112.6340485  60.1117610  50.9855461 113.0405951  58.7355136  51.4668703
 106.0232306   0.8241939  48.3073187 106.0192633   1.4052295  49.0679836
 105.1115752   0.8044624  48.0162382  52.3126745  97.6582336  34.7727609
  51.6820812  98.2743359  34.3999267  51.7877150  97.0898533  35.3363109
  74.3207836  97.4292660  74.2715216  73.5732889  97.6138783  74.8402023
  74.3228245  96.4764118  74.1803932   1.5943482  35.2495002  54.2495918
   1.3318160  34.4857692  53.7357616   1.7041399  34.9134731  55.1391220
  69.4572735  90.4737473  53.2160616  69.2400312  91.0626984  53.9386749
  69.0623665  90.8832836  52.4462843  59.1799021 105.1209927  62.6746511
  59.8763752 104.5662594  62.3233271  58.6875439 105.4040909  61.9041491
  23.5797551  43.0128176   5.7016194  23.0210117  43.4864122   5.0853932
  23.1761077  42.1479971   5.7750046  16.8643812  90.6300814  19.9893868
  17.5452426  91.0986883  20.4721558  16.1093381  91.2180979  20.0085938
  71.2268353  51.6238021  91.8917179  71.7059470  51.7532348  92.7102089
  70.7177330  52.4270057  91.7826080  58.4462929 103.3618546  27.8892159
  57.7218914 103.2929134  27.2673488  59.1325045 103.8235283  27.4073386
  80.6476069   1.8509960  53.8392544  80.5790521   1.7471504  52.8901768
  80.6394292   2.7980804  53.9777803  43.9690209  23.9282131  89.6771526
  43.4631098  24.4518279  89.0557671  43.3529521  23.2653808  89.9891472
  72.9401375   5.6563377  27.1984053  72.6746488   6.2602996  26.5048814
  72.6795173   6.0932350  28.0092263  66.4388037  82.7263355  73.0836916
  66.7494202  82.9128170  72.1977043  66.3144016  81.7773819  73.0991173
 108.8772107  13.3504486  22.7673364 108.4096480  14.1853141  22.7923036
 109.7521211  13.5752963  22.4507904  89.2312435   8.9682466  28.1892216
  89.2330078   8.0799371  28.5458004  88.3306984   9.1067964  27.8958714
   3.0872443  42.3596763  71.5331697   2.8078701  41.8882656  70.7483435
   3.3296158  41.6712665  72.1525097  29.4225693 101.0384655  55.7146311
  28.8445663 101.6842842  56.1209059  30.2568746 101.4959049  55.6101322
  58.5172821   2.3765945  57.4151278  57.9148436   2.8603649  57.9801655
  58.2576729   1.4608764  57.5165987  27.6745820  95.4287815  48.6237383
  27.2933960  94.5860863  48.3771801  27.7066422  95.9255409  47.8061581
  48.9534057   9.3155765  55.8045340  48.1731058   9.7947406  56.0833979
  48.9929939   9.4524478  54.8579979  30.7260799 105.4728889  52.6026964
  30.6224871 104.8770332  51.8607664  29.8774576 105.9088802  52.6800442
  85.4049922  16.5485954  63.2149315  85.7145882  16.6854381  64.1102839
  85.7092334  17.3194122  62.7358675  84.9879266  19.7636413  38.9041543
  85.9308816  19.9105644  38.9781952  84.7856665  19.1468143  39.6076107
  81.3276625  14.4600105  64.9884653  81.8125583  14.8593425  64.2662191
  81.8490411  14.6592521  65.7660913  48.5905313 102.1213627  46.7457962
  48.9315939 101.4412689  46.1649561  47.9765701 101.6615486  47.3183823
  96.4641810  40.4947948  49.7461891  95.5953503  40.2435493  50.0596189
  96.4282227  40.3517723  48.8004160  84.6109772  68.1795979  51.9790316
  84.8291206  68.3224630  51.0580349  85.3928566  67.7703094  52.3496628
  18.6227572  87.4812317  59.0555429  17.9825509  86.7703533  59.0875912
  18.7282217  87.6666927  58.1224251   6.6459563   5.5398750  67.8612614
   6.5737250   5.9623718  68.7171316   7.4556639   5.0319576  67.9124641
  66.8018532  96.3194370  82.4051189  66.3539934  96.8062210  81.7132378
  66.1937189  95.6172657  82.6361084  95.4339218 106.3443279  67.2646666
  95.9644032 106.6237640  68.0108166  95.6082439 105.4065418  67.1846819
  14.1438773  18.2154560  46.6694736  14.6548750  18.8200569  46.1313629
  14.7915270  17.6099204  47.0301962  12.7609590  53.1929666   0.6797802
  13.2878402  53.7998564   1.1996948  11.8943456  53.2201368   1.0853302
  77.1208931  29.4127368  58.8343811  77.3449517  28.4821605  58.8258886
  77.9651500  29.8620128  58.8746071  40.3807163  99.0190887  90.4655838
  40.8775806  99.5104980  89.8114586  40.5569506  99.4720268  91.2902164
  49.7586287  26.1923313  50.7840204  49.9985600  26.0612583  49.8666954
  49.5354391  27.1212863  50.8428240  51.4274085   2.0006847  42.6040745
  50.5748392   2.2519206  42.2487736  51.8836857   2.8308391  42.7414799
  15.8921278 101.3768101  73.5136843  15.2544594 101.7696190  72.9176092
  15.6760907 101.7435074  74.3710613 106.5642787  19.7167491  52.3670626
 106.8234874  20.4994201  51.8807840 107.0047809  19.8031997  53.2124710
  49.6193565   6.7082023  28.1911254  50.1984883   6.0531043  27.8016734
  49.3093849   7.2258853  27.4480557  43.3164740 100.1179314  50.9831476
  42.5606680 100.3469181  51.5240288  43.1489325 100.5464077  50.1437616
   0.6783869  14.3824672  57.0419216   0.7521679  14.4175434  56.0882139
   1.4610817  13.9100170  57.3254871 112.1130801  42.8544902  47.0676804
 111.1776734  43.0324172  46.9697523 112.1652938  41.9061946  47.1870708
  99.4571257  14.6971130  52.5628662  99.2511607  14.6434307  51.6296339
  99.9339105  13.8884353  52.7498245  69.9978352 102.9870701  63.4592438
  69.6192598 103.2313442  62.6147079  70.6411457 102.3108864  63.2467508
  69.6197248  27.3806762  29.9383545  68.8770128  27.7589893  30.4089785
  70.3857828  27.6446437  30.4479671  49.9463081  93.2835197  33.9504004
  50.4851484  93.3437157  33.1615686  49.3244362  94.0068913  33.8714457
 102.9524136  30.9897231  44.9307013 102.9704238  31.8597125  45.3294945
 103.8726903  30.7321166  44.8762369  41.9495964  55.9348059  84.3047714
  42.0403147  55.3422451  85.0510120  42.5842428  56.6312361  84.4734097
  63.3684444  76.9827032  15.9903395  62.5685740  76.5739489  15.6596446
  63.0862188  77.4692678  16.7648292  56.3205064  16.0314178  30.3518367
  55.4569364  16.4184665  30.2080703  56.1439694  15.2254867  30.8371592
  44.3557882 104.6393108  60.6693649  43.8070488 104.6370029  61.4536524
  45.2187061 104.9115467  60.9816027  52.2832155  83.8475704  13.9925897
  52.5897789  84.5807934  13.4590816  51.4520168  83.5915565  13.5928428
  98.0164767   0.5563926  67.6707983  98.1268550  -0.3351498  68.0012465
  97.1572638   0.5508041  67.2489452  10.4531100  47.7666473  68.0932856
   9.9351504  47.1942996  67.5272799  11.3165190  47.7936172  67.6809454
  88.7533522  14.6908283  62.8951597  89.4869185  14.0759658  62.8877735
  88.1802989  14.3884658  62.1905899  82.8924704   9.0970897  47.6450253
  82.9791451   9.5775508  48.4683561  82.3717881   8.3263778  47.8711414
  63.1590986 102.7027130  85.8800220  63.8151646 102.8398991  85.1966572
  63.1591558 103.5192776  86.3794899  26.6767812  85.2515697  32.2148609
  26.5968180  85.3793621  33.1601143  26.0607886  84.5465565  32.0155239
  70.3351928  13.9129733  45.6462145  69.5182968  13.4722232  45.4124355
  70.0616957  14.6513843  46.1904335  93.0403043   8.4603786  40.9574986
  92.3656274   8.1658267  40.3457117  93.1987906   7.7036285  41.5218019
  17.4268746  28.0673647  42.1890116  17.5061548  27.2930789  41.6318464
  18.3302474  28.3383965  42.3523808 109.4343497   6.3259965  28.4033966
 109.1790239   5.8847046  27.5932717 109.7517602   5.6224853  28.9695716
   2.3993903  51.7340374   8.2362419   2.3588632  50.8004665   8.4437031
   2.6958737  52.1469784   9.0472972  37.6829529   6.1001110  67.8805447
  37.2293806   5.3925061  67.4225044  37.9386282   6.7088348  67.1874952
  21.4173818  46.0395765  42.9240561  20.6666780  46.3813257  43.4097338
  21.0733175  45.8549356  42.0501232 112.5065806  12.4982762  45.8998775
 112.4117470  12.4066055  44.9518108 112.4014619  13.4358490  46.0615540
  19.8544931  20.5280328  52.4364948  20.0687051  20.5758548  51.5047979
  19.2048931  21.2185311  52.5686502  80.0338290 100.4962159  44.1987753
  80.2831528 100.0120539  44.9859571  79.2385832 100.9666646  44.4487667
   5.6718761  44.0980482  45.2152634   5.2434945  44.8441267  45.6348896
   4.9686658  43.6529732  44.7423649  25.5828404  16.7268109  23.6702919
  25.6515813  15.8510923  24.0505838  26.2646723  17.2336328  24.1112757
  10.3487372  19.8970950  77.3077583   9.4583666  19.7465551  76.9902515
  10.7863402  19.0522206  77.2032547  17.8160012  52.2206450  87.6493549
  17.6980567  52.7643681  86.8704605  18.7193787  51.9098234  87.5899315
  57.5621557  33.7925553   4.7756994  57.9980183  32.9634809   4.9729136
  58.2627392  34.3615484   4.4568560   7.5739223  20.0539422  69.2246914
   8.3680832  19.8163617  68.7460518   7.8557843  20.7383537  69.8316240
 105.6083725  39.6040583  35.5536532 106.3495986  39.8850417  36.0901809
 105.7333039  38.6609840  35.4476476  86.0553131  83.6368037  39.1770911
  85.5094764  83.6710454  39.9626613  86.7014906  84.3314934  39.3039513
 111.3184409  31.2840319  28.3387113 110.9570256  30.5531311  27.8373170
 112.0108642  31.6381216  27.7806783 112.3919652  63.9230109  58.2442904
 111.9750760  63.7976075  59.0967655 111.6625378  64.0446568  57.6365328
  28.2787633  42.4576139  28.2139850  27.9430890  41.6404200  28.5824323
  29.0496826  42.1947813  27.7111602 110.3704180  25.5976224  42.2001886
 110.7186149  25.3472948  41.3444233 109.4213514  25.5166125  42.1056271
  20.1121783  14.0375257  44.0267324  20.9823203  14.0805590  44.4232607
  20.1940203  14.5376384  43.2146883 113.3123299  24.5959377  57.0159769
 112.9407439  25.0155663  57.7919054 113.0085340  23.6895609  57.0652008
 106.0711364   4.1939270  24.4568038 105.3587715   4.7336656  24.1140938
 106.7921005   4.3304345  23.8421416  98.8723586   4.6517894  14.2239046
  98.9968608   5.1166719  13.3964896  99.1961585   3.7674156  14.0528226
   7.9798424  51.7192411  58.5224771   7.1166003  51.5423918  58.8963366
   7.9062289  51.4434624  57.6088285  69.0874205  79.5250846  16.1679804
  69.4636200  78.6988736  15.8645296  68.1900064  79.3028665  16.4159715
  18.9362776  28.5010791  32.6508737  19.7162974  29.0524292  32.5891113
  18.3119178  28.9007378  32.0453334  11.5248692  34.4144416  49.7067356
  11.8636250  34.8250055  48.9111757  10.8943784  33.7665844  49.3921041
 112.0067638  25.1693058  49.1756296 112.5599033  25.8176422  48.7398195
 111.1628284  25.6079888  49.2831516 109.7816910  39.0112090  48.3004093
 109.2456107  38.9447808  49.0906191 110.1347505  38.1302762  48.1757450
  17.2100401  18.1140327  42.3605871  17.1707916  18.7688816  41.6635466
  18.1352663  18.0776393  42.6032066  79.8501313  88.9568580  32.0489120
  80.3011704  88.1127632  32.0316410  80.5264256  89.5945156  31.8203282
   0.3222771  29.9205852  51.4401913   0.2245834  30.0775051  52.3793745
   0.6126559  29.0105915  51.3783312  93.2953857  14.5785058  22.4923038
  94.0894709  14.8720670  22.0456672  92.9688428  13.8589418  21.9520926
  37.2383237  24.0223694  85.8789062  36.4420485  23.5202432  86.0522366
  37.9311967  23.3636808  85.8310890 105.5836754  62.6872396  50.4290485
 105.3385226  62.9931211  49.5557928 105.2469800  63.3594036  51.0215521
  21.5814042  19.4951308  29.0767837  21.9355297  18.8659835  28.4482932
  21.2356043  20.2051663  28.5359454   8.4511411   0.6347361  85.0163174
   8.4499085   1.5217055  84.6564293   9.3120176   0.2845158  84.7872543
  83.2690881  39.0650105  13.2246220  82.5406931  39.0228653  13.8442159
  83.2771800  39.9743938  12.9259729 111.7143770  48.0073595  68.9251900
 112.3687950  48.6900854  68.7773561 110.8799197  48.4254026  68.7127018
  13.6355662  57.4449492   5.3510278  14.1010189  57.8777170   4.6352765
  13.7760913  58.0147314   6.1072254  99.0232513  95.8648801   8.3014232
  98.3999345  95.7054318   9.0101433  99.3374178  96.7559636   8.4547246
   5.9691799  40.2275419  14.3656719   6.4077890  39.8611236  15.1335192
   6.5431362  40.0045300  13.6328197   7.8095013  33.9118218  47.7863884
   7.6843315  33.4874582  46.9375801   8.4885448  33.3919001  48.2162857
  95.5125509  16.8223619  29.0090036  95.9828947  16.4088523  28.2851124
  96.0586141  16.6536987  29.7768569  13.5979104  15.5411613  55.2843904
  13.4173250  15.6288064  56.2203074  14.0699911  14.7119677  55.2081728
   4.4074947  33.5078526  35.8339238   4.6099174  34.4348240  35.9603310
   3.9244658  33.2585669  36.6218138  49.1231203  41.7127419  33.8317585
  48.5429859  42.2831202  34.3360806  50.0002146  42.0607185  33.9925528
  90.7422660  12.5342083  73.0427122  90.1712798  11.9128633  72.5908995
  91.4163421  12.7518773  72.3989201   4.8596033   8.3449304  35.4247189
   4.3936861   7.8324181  34.7640514   5.2597606   9.0621793  34.9331307
  14.5959187  37.0557976  40.8820391  14.7005880  38.0061293  40.9283924
  15.4288995  36.7073154  41.1997414  69.2822442  93.9873565  27.6194286
  69.7245721  94.8348928  27.5718927  68.9246604  93.8542379  26.7415643
   4.4179243   2.2606201  52.5091696   5.3421021   2.3214920  52.7508783
   4.1305992   3.1702554  52.4301815  23.7983155  12.4156249  37.9152298
  24.2982721  11.7539775  38.3932447  23.3913493  12.9482698  38.5985327
  25.1725078   8.9297128  40.8114052  25.6123233   8.5973525  41.5939188
  24.5514321   8.2408243  40.5749130  10.6815016   0.5140264  71.2778521
   9.7689396   0.2925283  71.4633274  11.1823010  -0.2249894  71.6232300
  94.7630284  95.5665708  53.2018709  93.8593791  95.3181744  53.3966827
  94.8595057  95.4028023  52.2637320  53.4461973 102.3309950  35.7082987
  54.3810842 102.5187588  35.7917380  53.4097598 101.4176393  35.4242468
  29.7714063  63.6021727  92.0828139  30.2487334  64.2085248  91.5164849
  30.4552296  63.1065255  92.5333148  91.6398810   1.6543442  40.0375080
  92.4118350   2.1429633  39.7519040  91.9934247   0.9199788  40.5394506
   3.2382554  21.4645314  34.2131615   3.3611062  22.3884678  33.9952517
   2.3940419  21.4348197  34.6633315  11.3851023  44.7392225  16.8608820
  11.1652029  44.6619558  17.7892697  12.2966206  44.4522572  16.8059564
  59.9577520 105.1051096  21.7470956  59.3179867 104.6463463  22.2915840
  59.7140834 106.0281015  21.8174076 108.8344668  32.8135109  61.2632132
 109.3144934  33.0113792  60.4590654 108.1090657  33.4380054  61.2689543
  45.9832191  14.0481031  74.8341846  46.2235355  13.2657087  74.3378592
  45.0288820  14.0084016  74.8965979  31.0070395  41.4307547  34.9764395
  31.7465925  41.9749784  35.2468324  30.5777621  41.1855984  35.7961035
 106.1737464  29.9657536  74.8743391 105.7733510  30.3507614  74.0947962
 106.9356255  30.5179906  75.0498581  24.8858953  13.2055867  27.4435472
  24.4943786  13.0879402  26.5780377  24.1558623  13.0982101  28.0532622
 109.7006644  20.6759262  20.6989837 110.2235363  20.9759116  19.9554467
 110.3083165  20.1558161  21.2247944  13.8987386  62.7892780  39.9428248
  14.4706595  63.2769966  39.3501449  13.0191970  63.1118059  39.7463179
  77.9700135   1.9810878  30.3721213  77.8120635   1.6807428  29.4770908
  77.0985554   2.0328064  30.7647038 108.9379840  52.7385283  66.7984486
 109.0424179  53.6896324  66.8253565 108.1383072  52.5711775  67.2971916
  92.5758289  39.2487860  59.0306902  92.0823191  39.5830345  58.2817173
  92.4386571  38.3018255  59.0045691  69.3753458  65.5395920   6.2538445
  69.6566010  65.0088055   6.9990933  69.3797398  66.4379079   6.5843594
  11.2831104  42.3596048  19.9069774  10.7496297  43.1154633  19.6613979
  11.7066872  42.6209068  20.7246184   4.9143177   7.4741852  79.5518637
   4.7268349   6.8055785  78.8930416   4.2326182   8.1339180  79.4243145
 103.7892763  27.1175122  69.2398453 104.0326057  27.1794558  70.1635265
 104.6243928  27.1102810  68.7721252   9.7336805  41.7860222  28.2733607
  10.6014717  41.4712143  28.0202460   9.9060494  42.4646807  28.9260030
  36.4823818  20.1650691  58.3912563  35.7240462  20.4904008  58.8763523
  36.7902040  19.4163275  58.9020061 101.9632684  28.5025287  49.7647619
 101.4389811  29.0218616  50.3743887 101.3680778  27.8174114  49.4604635
  12.4592233  62.4333191  62.9006338  12.1338701  61.5373707  62.8131580
  13.0163360  62.5618505  62.1329498  67.6986168  20.9503841  37.2359180
  68.6118649  20.7527971  37.0281410  67.3161124  20.1030564  37.4638581
 111.2931426  20.8646631  18.5691690 111.7460082  20.0229311  18.6204612
 110.9256430  20.8854675  17.6855731 109.1749237  37.5295067  27.0996881
 109.6889965  37.0282269  26.4666963 108.9100070  38.3164692  26.6235137
 106.3955210  29.2611551  42.8348827 106.0768889  29.8566079  43.5132170
 106.0757838  29.6385860  42.0154047  78.5132445   7.2993820  83.7313295
  78.1491212   7.1423166  84.6025217  78.3304486   8.2228916  83.5582698
  44.4881630  38.3746648  86.7153072  45.1234674  38.2479119  86.0106373
  43.9321184  39.0916443  86.4103794  29.4966078  24.8552251  59.5455074
  29.1569662  24.1431165  59.0034962  29.0614891  24.7415614  60.3904819
  87.7348862  86.5312124  14.4903123  88.5626135  86.6603995  14.0272701
  87.0630083  86.6660190  13.8220024 103.6519365  30.3853059  66.0549355
 103.4390651  30.4101896  65.1220369 104.5141195  30.7967353  66.1149263
  60.1973008  22.6278734  58.7642193  59.3546246  23.0367875  58.9615011
  60.8253191  23.0959749  59.3143988   0.3465944  48.9624596  47.1071434
   1.0071151  49.0806770  46.4245224   0.2655111  48.0132437  47.2001457
  11.1963928   5.8379149  83.4638023  11.1768389   4.8949900  83.6273384
  10.4284549   6.0020548  82.9164791  33.3896732  63.1916046  61.9940567
  33.1986785  63.0417824  61.0681486  34.2805076  63.5417414  62.0012426
 112.3072261  31.5906835  49.8620605 112.5662900  30.8097363  50.3511763
 112.2837636  31.3045597  48.9489269 100.4224083 103.3798960  77.5286293
 100.6433675 102.8302551  78.2804966  99.5182440 103.6509309  77.6875591
   8.3375472  44.0313101  59.9230385   8.8159776  43.2220411  60.1031017
   7.4525362  43.7419987  59.7010326   4.9926007  48.5574627  21.4039755
   5.6808150  48.0596542  21.8453097   4.2220786  47.9912090  21.4473271
  35.9522557  42.0044041   7.8171140  36.6267586  41.7471409   8.4456795
  36.1825156  41.5371656   7.0140570   6.9610524  15.0260425  44.2867851
   6.5345049  15.2841079  43.4696627   7.3801458  15.8269930  44.6015453
  87.8175662   3.2724109  46.2066603  87.5885271   2.8922734  45.3585625
  87.0994805   3.8747820  46.4009142 106.6618656   3.4553325  70.7513046
 106.4015643   2.5342366  70.7437372 106.2424503   3.8163406  71.5323257
  28.4979534  10.1106179  40.2696657  28.9961195   9.2993438  40.1701784
  27.6241469   9.8967516  39.9426222 100.5867253   2.0198029  44.2364502
 101.4544474   2.1551748  44.6171951 100.1078473   1.5252453  44.9015236
  11.8499517  47.3265696  63.5354996  12.1140349  47.3784065  62.6169109
  12.1158826  46.4496183  63.8120461 105.7428436  76.3015461  42.6838064
 104.8720895  76.5982056  42.9484034 105.6187676  75.3852415  42.4363708
  25.0355721  34.9364233  70.2958775  25.9713316  34.7672486  70.4052687
  24.9942946  35.6559777  69.6659803   6.0805792  22.4691963  66.3917923
   6.9470847  22.1426105  66.6341591   5.8878839  23.1434417  67.0433235
  51.8647858  68.9794295  91.4228195  52.1246430  68.2597559  90.8476879
  51.3433203  69.5559972  90.8643623 106.6460310  96.5139294  38.3031559
 106.1011003  95.7621288  38.5357118 107.0730452  96.7629147  39.1228485
  10.5791581  21.6157436  35.1936746  10.0566840  21.2307262  35.8972478
   9.9421680  21.8301630  34.5121312  95.4511999  25.4027700  71.9828320
  94.9783896  24.7982168  72.5548458  95.1708041  25.1650596  71.0990334
   5.7487273  53.6537409  16.1654544   6.3255543  53.6840677  15.4021835
   5.4808974  52.7368402  16.2269855 105.2870809  32.6250863  80.4322052
 104.9789934  33.0602884  81.2271309 105.5063640  33.3415556  79.8365355
 108.8459109  24.9669266  52.1048069 109.7706948  25.0852847  52.3215961
 108.8177736  24.1441154  51.6165257   0.5939572  43.6406851  79.5035315
   0.8854062  43.2803774  78.6659956   1.3904190  43.9882088  79.9049139
   3.1158584   0.8856767  39.4132352   3.5365063   1.1987719  40.2140236
   2.8266189  -0.0016688  39.6258163 111.6374116  59.8834801  20.6360531
 111.6311267  60.8039904  20.8984590 112.4843378  59.7625923  20.2067113
  11.2575829  50.6554461  19.3154061  10.3793263  50.6216860  19.6945620
  11.4232159  51.5880585  19.1774583  16.8140936  18.4644473  29.8258424
  16.5899646  19.0644801  29.1145372  17.6313126  18.0534482  29.5439482
   1.2653679  57.5924873  48.1026316   0.3300402  57.4529076  48.2506514
   1.4738378  58.3766079  48.6105013 105.3306316  61.6326618  36.1741114
 104.7500305  61.6334295  35.4131031 105.5967919  60.7183695  36.2713838
  21.1709523  25.0171614  73.9774752  20.6945491  24.2704988  74.3404722
  22.0528126  24.9384069  74.3412828  31.4022160  83.9186001  31.7459512
  31.2367940  84.8605156  31.7051315  30.5663013  83.5180473  31.5071297
  36.8191528  41.0354662  29.6466231  36.7192793  41.4668465  28.7979937
  36.6827130  40.1064825  29.4606066 107.4920730  22.4267602  41.5437651
 107.0657466  22.2735667  42.3869801 108.3369534  21.9831038  41.6184425
  49.2036343  48.3567476  12.1946526  49.7669840  48.6631155  11.4840114
  49.8048449  47.9495096  12.8182971  77.7289699  13.0259228  11.6582286
  78.3887838  12.8049290  11.0009313  78.0943893  12.7037132  12.4821711
   0.6123719  70.0969505  46.1553574   0.5057191  69.1490841  46.2353563
   0.1266251  70.3266144  45.3631830  35.6787896  64.6215677   4.1536278
  34.8689890  65.1029348   3.9841020  36.3114715  65.2963495   4.3998221
   7.7515286  39.1042662  64.0197325   8.3430409  38.8291168  63.3192778
   7.6899141  38.3414412  64.5946550  11.6576207  35.3478980  46.9378233
  12.4657309  35.8550239  47.0153618  11.3783288  35.4794097  46.0317707
  31.9965577  33.5604954  22.8950977  32.6973081  34.2125106  22.9026151
  32.3946214  32.7766943  23.2738256   6.6373259  30.4660177  57.2964478
   5.7478058  30.5581999  56.9551420   7.1358925  30.0948119  56.5685272
  12.2500718  12.6633942  12.1635282  12.8480959  11.9210732  12.0765829
  11.6505551  12.4071717  12.8643572  86.9874034 102.7105803  66.1965036
  86.9517264 101.7553640  66.2467098  87.6911662 102.9558737  66.7971563
  13.2267463  40.3914928  34.4813967  13.6181355  40.6064653  35.3280568
  13.0891228  41.2393379  34.0589619   7.2247386   7.5410259  37.6093173
   7.8855848   6.9817293  38.0176091   6.7358476   6.9530022  37.0336032
 112.1344499  11.2763345  60.0880957 112.0506854  11.3095534  61.0410452
 112.6524542  10.4890525  59.9204922   1.3497406  10.6442797  45.4858351
   0.7540210   9.9433511  45.2211666   0.7797000  11.3115275  45.8680201
 102.9501568  24.8502851  26.6151357 103.6694156  25.4772663  26.5390253
 103.3743165  23.9931440  26.5747929 102.4055479  30.0745368  57.0246363
 103.3551465  30.1930404  57.0033789 102.1091352  30.3601146  56.1604500
 101.9353722  45.6899214  51.3128805 102.1669196  44.8219061  50.9824753
 102.6902948  46.2374926  51.0972691  14.1967285  29.7172284  39.0919352
  13.5975873  29.0561295  38.7452245  13.6871600  30.5275154  39.0887189
  26.5140915  22.9289412  39.3667364  26.4530659  23.6244917  38.7119722
  25.6056809  22.6798058  39.5368910  22.1447992  29.5685124  54.9086809
  22.9013395  30.1520586  54.8508072  22.3032713  28.9037156  54.2384863
 110.5005889  33.7028623  49.7979879 111.0734446  32.9656839  50.0092554
 110.7023381  34.3611979  50.4629087  17.3220289  61.1188412  59.7785378
  17.0352173  60.6580830  58.9900780  16.8484342  60.6907463  60.4917526
 108.2928853   6.9110042  42.0624399 109.0275733   7.5242966  42.0440674
 108.2465409   6.5659922  41.1707830   0.4935406  34.7961688  25.2108860
   0.3679067  35.4945421  25.8533216   0.1869219  35.1718903  24.3856287
   7.5291443  20.5091763  21.5001130   7.7815437  19.7368002  20.9941864
   7.2022289  20.1569271  22.3279309 111.8264616  14.4229877  22.7489853
 111.3467713  14.6115112  23.5555768 112.7248391  14.6958506  22.9352522
 112.7065518  51.8716669  45.9258747 112.9362807  51.3288307  46.6800547
 113.5486137  52.1251965  45.5478716  69.2815090  66.3619835   1.9664681
  69.1184331  67.1431739   2.4950325  68.4903169  66.2614651   1.4371884
  13.9239836   2.1966746  27.9304576  13.8256919   3.1166914  27.6852250
  13.2568800   2.0552613  28.6021781   7.8175330  42.8767395  15.5986738
   7.7879745  42.0157909  15.1813960   8.6288625  43.2706070  15.2779758
  73.9964456 104.6569424   8.3632797  73.1578911 105.1157444   8.4138644
  74.4609750 105.0855284   7.6444209  25.2622676  41.1219215  29.3130898
  25.8680248  41.5826607  29.8936152  24.5255303  41.7240953  29.2090034
 112.1664442  35.7202005  72.1517420 111.3256057  35.3245234  71.9222593
 112.8000239  35.2833152  71.5825844  37.5237155  44.1190147  31.0451674
  38.1026483  44.2664433  30.2972817  37.3861790  43.1718397  31.0585284
   5.9507751  20.6017613  38.7789917   5.3553468  20.3815031  38.0626225
   6.0795265  19.7761202  39.2458653   6.5103120   9.5891815  22.2306037
   6.5508348  10.3474927  22.8133178   6.0755152   9.9154943  21.4427567
   1.8262544  12.0853245  71.0133839   1.7032434  11.1793923  70.7298565
   2.3363325  12.4889159  70.3111267 104.1724877  53.9415073  47.9467583
 104.6781562  54.1569996  47.1631193 103.2931338  54.2718077  47.7627182
  39.8225880  27.5880384  57.5988150  40.4907560  27.8750062  58.2212543
  39.9404526  26.6398787  57.5410986 105.9464465  79.9172974  21.1668992
 105.2315973  80.4791737  20.8676982 106.7247264  80.2694988  20.7350826
 101.2315391  16.3730395  40.5765915 100.9545337  16.4478421  39.6634078
 101.7336582  17.1712685  40.7407236  32.1672821  79.8198080  19.3289590
  31.2637377  79.5237446  19.4393516  32.2311163  80.0541210  18.4030795
  17.6161921  38.4153247  29.1818261  18.1195164  38.4051871  28.3677053
  17.7394748  39.2989254  29.5286465  91.6735123  30.2831173  14.8807395
  91.8252562  30.9275031  14.1893840  92.5465320  29.9585152  15.1014197
  61.4316603  97.8157108  76.1231339  61.9276282  97.1633308  75.6285179
  61.7766544  98.6567324  75.8233095 107.3423456  40.5138731  22.8854084
 108.0477975  40.1323843  23.4079313 107.5083087  40.2028322  21.9954967
 109.0807173   6.0078113  85.6709034 109.8843787   6.2073295  85.1907456
 109.1170356   5.0624197  85.8163214 102.4144374  40.8727646  63.2147312
 101.9682179  40.5207253  63.9849186 101.7428993  40.8830690  62.5327063
  16.7072809  30.9686708  27.9634571  17.1596229  30.8721900  28.8014960
  16.1568272  31.7436004  28.0762172   3.3702445  28.2117128  26.9536066
   4.1128129  28.0113006  27.5233960   3.7675506  28.4335041  26.1114740
  97.8731428  45.1687479  51.7934895  97.4894963  46.0373974  51.6731071
  97.7834521  44.7467899  50.9390068   2.1899799   1.4139928  54.1923332
   2.9370689   1.7051706  53.6695480   2.0208056   2.1395993  54.7932529
  43.1835508  28.9655280  33.2773161  43.4149504  28.7682891  34.1849399
  42.9408598  28.1188178  32.9025936   5.5813217  48.9849615  40.2967739
   5.7542461  48.7311840  41.2033701   5.2031106  48.2018709  39.8968267
  13.0094147  13.8482773  18.9353824  12.9071128  14.5687306  19.5572448
  12.2505248  13.2865179  19.0926909  15.7787621  22.7953577  53.6444521
  15.3788018  22.4309015  52.8548717  16.0274112  23.6861491  53.3976841
  16.4179730  75.8174181  53.1153584  15.7476974  75.4019356  53.6578846
  15.9748280  76.5682840  52.7203178  74.0922619  88.2358201   8.2907116
  73.9822698  88.0002244   7.3695004  74.0210224  89.1902716   8.3039868
   1.6940905  49.2383003  71.7584753   0.8014514  48.9370298  71.5891695
   1.8714648  49.8669434  71.0587740  91.4385389  52.1442842  75.2802181
  91.2263654  51.3068962  74.8679161  92.3661683  52.0723152  75.5050707
  86.2082671  27.4615741  54.1539192  86.6902636  27.9270768  53.4703827
  85.6254481  26.8712664  53.6763334   8.0705065  33.2364273  56.9662857
   7.7817833  32.4255657  57.3850632   8.0096889  33.0563092  56.0281515
  20.2827168  37.3900414  41.2060690  20.9759402  36.7427182  41.0770512
  20.2420640  37.8659964  40.3765821   6.4847326  27.9787636  33.6982155
   6.5541089  28.2610846  32.7862310   6.9933677  28.6247921  34.1882849
 112.2752549  38.6672616  29.6791291 112.0831689  39.0095139  28.8060904
 111.4657803  38.2341433  29.9500394  27.4259496  35.4678845  53.2225609
  28.3623672  35.5055690  53.0277920  27.1649170  36.3834405  53.3218002
 101.1439930  10.7902133   9.8787010 101.2568758  10.8360589  10.8281147
 102.0333086  10.8446181   9.5288599   5.0598276  66.6266251  11.4835393
   4.7310585  65.7606554  11.2421966   4.7802123  66.7445183  12.3913646
  91.1472867   7.7096635  36.8976641  90.8788227   7.1963882  36.1356235
  90.3737877   7.7240348  37.4613357  21.3562465  35.0798130  35.1182055
  21.3357306  35.1432061  34.1633272  20.4381084  35.1401854  35.3820348
 111.2786376  19.9700463  22.8498793 112.0113219  20.5415869  23.0795431
 111.5873554  19.0887094  23.0600452  24.6413755  20.3745198  43.4238815
  24.7573781  19.4937384  43.0675077  25.1277852  20.3653336  44.2482281
  81.0717055 100.2261847  75.8981705  80.1920172  99.8507803  75.8600891
  81.5129945  99.8815601  75.1218152 111.9659777  50.9641457  33.3268857
 112.2466885  50.0956535  33.6152530 112.6827630  51.5447092  33.5826135
 104.4329624  19.5653784  76.3157892 104.1274826  18.8369465  76.8564367
 104.8376130  20.1712132  76.9366407  23.0376887   7.0169961  63.2877827
  23.5706377   6.3376284  63.7008858  23.4689140   7.1830028  62.4494982
  16.2258935  21.1770749   6.1419654  17.0774198  21.5993929   6.2550211
  15.8912754  21.5296507   5.3173733  98.9140044  30.7892680  85.5327225
  98.3780132  30.0096798  85.3871536  98.8166808  31.3002896  84.7292137
  94.2984484  39.1320086  46.4808083  94.4461702  38.6505628  47.2948265
  93.4558271  39.5674682  46.6096306   8.1217790  23.2101154  46.4957857
   8.6123252  22.7527761  47.1787453   8.6706680  23.1345439  45.7152462
   2.2078478  46.1485577  22.1427155   1.9611771  45.3477240  21.6800618
   2.8086036  45.8542728  22.8273463  13.8475704  25.9524083  68.6879396
  13.9964998  26.8038392  69.0991783  14.0656400  26.0902190  67.7661562
  45.6712484  23.8989925  40.2684975  45.5669641  23.2306433  40.9457445
  44.7761202  24.1338205  40.0238895  22.6049209  52.9827595  72.0370531
  22.1934915  53.5462809  71.3817644  22.9245472  52.2303152  71.5391588
   0.2132600  46.7216444  54.3342352  -0.3735730  47.0885038  54.9955034
   0.1744159  45.7760477  54.4776630 110.1498632  30.1275516  30.6512833
 110.7379086  30.8522868  30.4387045 109.6380787  29.9925351  29.8537374
   3.6290085  43.5725069  53.3870745   4.3514505  43.4994841  52.7633953
   2.9355296  43.0275154  53.0151844  84.8295919 100.3635133  27.8883743
  85.0306521 100.1660175  26.9736052  85.4049746 101.0965056  28.1072092
  75.7892202  20.6111121  51.2525082  76.2893771  21.2596202  50.7570171
  74.9077891  20.6541109  50.8817482  34.2148089  37.1780634  37.2835636
  33.8060427  37.9428315  36.8782568  33.9770508  36.4481664  36.7117643
   6.2993950  24.8307109  39.5200658   7.1235430  24.9023318  39.0385246
   6.3869232  25.4565239  40.2390432  27.0399523  80.7289219  73.7579632
  26.4983582  81.0993767  73.0610609  26.4113498  80.3843975  74.3923044
   7.7700323  42.5495338  19.7817922   7.7317226  42.9965210  18.9362371
   7.9329258  43.2485628  20.4150820  25.8220744  67.6315117  62.1492147
  25.0977945  67.4736071  61.5436459  26.5906405  67.2791672  61.7004490
  85.4955769  18.9382768  31.9276595  85.4296207  17.9833853  31.9195747
  85.1056194  19.1982365  32.7622771  66.8248126  93.4868496  81.2768901
  67.0796510  92.5761097  81.4246810  65.9794637  93.5735338  81.7174638
 105.5997013  56.4220047  43.8803339 105.6365977  57.1357107  43.2435513
 105.2993594  55.6660938  43.3757305   5.0340164  27.4560404  46.6726780
   4.6928412  27.1087098  45.8485460   5.7317865  26.8484735  46.9180584
  88.2567047  23.8753414  58.8114405  87.4243163  23.4921169  59.0880299
  88.4312771  23.4784794  57.9580593  50.4394770  24.7005820  62.0318079
  51.0192728  25.4347277  61.8290806  51.0191107  24.0306425  62.3943520
   3.7558714  65.2381420  25.7652473   3.9665470  66.0423756  26.2396502
   3.1000060  65.5048561  25.1210928  31.0825133  69.1375923  43.3072567
  30.2194977  69.3919802  43.6339426  31.6379714  69.1199255  44.0866041
   5.7624888  10.7972741  43.3952379   6.1638558  11.3860679  42.7561283
   4.8264283  10.9907496  43.3443451  16.9382274  58.9561510  45.7112551
  17.1887946  59.1750669  46.6087627  17.0462310  59.7742081  45.2261257
  15.6671190  44.5045519  52.8971720  15.5243850  43.7396669  52.3396683
  15.9353220  44.1395998  53.7404442  27.4776196   2.4278010  34.9025655
  27.4380279   2.9837698  35.6807446  28.4133744   2.2993912  34.7473049
  16.9933438   9.9322861  10.1231670  16.6973948   9.1346437   9.6845186
  17.6657188  10.2893245   9.5429361  18.2217610  21.4912605  78.8544416
  18.8978565  20.9421182  78.4574938  17.7541173  20.9038377  79.4481373
 106.4511053  60.9966469  55.8634329 106.1164419  61.3735104  55.0496721
 105.6852065  60.9423447  56.4349937  51.5866137   4.2560309  18.9275908
  51.3769722   5.1346022  19.2444408  50.9011316   4.0620783  18.2882738
  27.5256014  24.1422176  41.7234421  26.7592788  24.4345403  42.2169256
  27.1675515  23.5825467  41.0343838   8.6039340  37.4475551  33.1491137
   8.1727648  37.9570246  32.4629903   8.7081319  38.0630159  33.8747740
   6.3511354  39.3715477  56.7395878   6.2627321  39.5502758  55.8033848
   7.0917350  38.7680769  56.7993307 101.7473970  28.5289955  45.4440355
 102.0276187  29.4389987  45.5420303 100.9719525  28.4559321  46.0004377
  24.3094110   9.0478206  54.3956566  23.9631510   8.1810129  54.1835690
  23.6217904   9.4587958  54.9195910 104.5124768  13.8496923  27.0670033
 103.7024300  13.4137225  27.3315525 104.3110739  14.7837830  27.1230555
 111.7234090   5.6703842  84.2274284 111.8475719   4.9515679  84.8472023
 111.6301836   5.2403051  83.3773899  19.5235264   9.6361291  46.1187601
  18.8483727   9.0854788  45.7222986  19.8390126  10.1834297  45.3996229
 111.3894181  24.4870162  24.8057175 110.5337433  24.8327947  25.0596619
 111.9357827  24.6054101  25.5826974  13.9212334  25.6946850  31.6096592
  14.3441749  25.9497690  32.4295878  14.3360400  24.8647690  31.3742733
  98.5479139  31.3234663  43.7835169  98.0842958  31.4202118  42.9516935
  99.4464420  31.5902710  43.5893631   0.3645829  21.4981794  39.0960836
  -0.5165299  21.5917921  39.4581723   0.8208291  20.9328103  39.7193241
  12.2644222  16.6123402  53.1976604  11.4793921  17.1299434  53.3766747
  12.5359404  16.2846780  54.0550709 112.3855392  33.8664961  44.8102570
 113.1413042  33.3896518  45.1532936 112.7641538  34.6108508  44.3424797
  16.9644284   0.0978831  32.8700638  16.0588837   0.3595990  32.7035570
  17.4142706   0.2495512  32.0388770  85.2095840  87.3949957  42.8549337
  84.7306994  88.0858195  43.3128214  85.3867028  86.7390276  43.5291481
  21.3846278  15.9139240  42.5993776  22.2709513  15.6054211  42.7877569
  21.4960885  16.5409207  41.8847561 110.3008832  33.3281374  59.1798687
 110.9203115  33.9536381  58.8039875 110.4270847  32.5291181  58.6681318
  95.3654753  60.0482750  30.6735563  96.2732373  60.2734613  30.4698634
  95.0669394  59.5471382  29.9146271  23.2655096  19.9960566  24.3765473
  23.9890289  20.1887321  24.9728942  23.6258721  19.3575358  23.7611938
  35.5103588  31.4130259  45.1524878  35.5212259  32.3623109  45.2748537
  35.0516915  31.0774803  45.9227228   0.9074517  37.3837113  63.0958891
   0.9945115  37.7603149  62.2202063   1.0841641  38.1137466  63.6892271
 109.3821640  15.1135659  62.4574280 109.2178459  14.3690789  61.8786621
 108.5787831  15.6321883  62.4145174  22.9241276  59.2483521  27.7479863
  23.1249666  58.3248568  27.5961471  23.2554793  59.6966076  26.9698429
  93.2503222  19.5015860  34.8818088  93.5135554  20.4099727  35.0293660
  93.3192299  19.0893555  35.7429409 106.2579660  56.5341568  48.5361099
 106.7953132  55.9311342  49.0497828 106.0803901  56.0627699  47.7221727
  83.6917423  13.6425078  46.4044619  83.6918496  12.7273643  46.1238527
  83.4389375  14.1328537  45.6222343 105.9234856  60.2701855  31.0364819
 106.2627368  59.4866133  31.4691043 105.0777732  59.9993515  30.6791997
 112.2648127  68.9395761   8.8202989 111.9452253  69.7950315   9.1071641
 113.1327968  69.1173267   8.4580290 108.5443623  18.3653712  27.2810340
 107.6158826  18.5335457  27.4418879 108.5828350  18.0908597  26.3648486
 100.4976676  10.6789470  65.4244280 101.2914036  10.5837727  65.9508801
  99.8038290  10.8393192  66.0640383  57.5551796  75.6686020  51.8215704
  57.7890205  74.7525930  51.9714975  56.6945744  75.7659006  52.2291565
  99.8664592  27.4640155  53.1243181  99.5466636  28.2863474  53.4954405
 100.4576026  27.1142411  53.7909794   9.1016376  75.9423161  39.2390537
   9.9297172  75.7596350  39.6830606   8.5907185  75.1398993  39.3454289
   4.8330107  62.4509907  55.7367897   4.8464081  61.7983675  56.4368868
   5.6978464  62.8595638  55.7736397 113.2207042  57.7363682  77.4731922
 112.5389348  57.0654821  77.5096750 113.8650583  57.4586964  78.1242990
   1.5387863  73.9837456  54.1888857   1.5140212  74.2967129  53.2846308
   0.7247850  73.4912777  54.2942667 110.5670990  63.2965565  16.6385639
 111.0398945  63.8147068  15.9872437 110.8919208  62.4044466  16.5166414
 108.1474356  53.5406637  55.1364231 107.8373735  52.6357269  55.1707125
 108.6803718  53.5813189  54.3423462   9.4129086  10.4959047  21.0288072
   8.7492895  10.6461334  21.7020607   8.9154321  10.2163434  20.2603054
  88.8509820  49.6837521  31.6509056  88.6512373  50.3021431  32.3537064
  88.3944701  48.8806438  31.9015956   4.9225190  55.4483128  17.9970884
   5.8260041  55.3561163  18.2994890   4.8101303  54.7430706  17.3597229
  18.7112546  35.2512860  18.0101967  18.5199201  35.0504375  17.0940733
  19.6418977  35.0508595  18.1100202  31.3578343  24.1018343   5.1998115
  31.2961364  23.4883618   5.9319842  31.3848782  24.9651599   5.6123286
  38.5869861  77.0929718  38.1627798  39.2004585  76.4555264  38.5282207
  38.2860684  76.6947794  37.3460054  38.3740211  21.0820150  76.5568304
  39.1764998  20.8169675  77.0062828  38.3848643  22.0385265  76.5914536
  27.7404261  36.7671275  18.6817002  28.5881257  36.3301516  18.7634778
  27.8515768  37.5949144  19.1492951  38.7543774  55.4825926  43.7251520
  38.1962252  54.8037148  44.1043901  39.2515683  55.8261824  44.4674301
  22.7928948  33.2327056  48.9794874  22.1781969  33.0302167  49.6847343
  23.2957506  33.9785028  49.3068314 102.1679459  56.8953609  66.8347025
 101.6277777  56.1359453  66.6162014 102.2828422  56.8425274  67.7835131
  21.3753462  24.2069030  29.3442273  20.4275489  24.1656113  29.2169142
  21.5018988  24.9181676  29.9721766  33.5342073  32.4162674  25.6314397
  34.1269016  32.8799629  25.0398898  33.6981201  32.8071928  26.4896607
  16.9931829  48.1163406  21.2216425  16.7376339  48.4891605  20.3778815
  17.9416823  48.2391453  21.2603450   7.6496011  30.0386691  35.1086593
   6.9673222  30.5762863  34.7065425   8.4250635  30.5998015  35.1132655
  37.6476622  56.7380571  60.1752281  38.0039454  57.1336889  59.3797588
  37.3832774  57.4827385  60.7153940 103.6651419  48.1140661  84.3375492
 104.1941492  48.8836527  84.1274929 104.3008481  47.4558020  84.6182632
  10.5192459  69.7452259   0.8070982  11.0186636  69.6221018  -0.0001525
  10.0798142  70.5876017   0.6907570   2.6303756  87.8614521  50.8194876
   3.4813756  88.0549431  50.4263115   2.1305273  88.6716175  50.7194138
  50.1814461  36.0330772  43.1196070  50.2460241  35.4150844  42.3914957
  50.7317591  36.7709351  42.8570223  35.3719783  36.3527513  27.9902601
  35.0282216  35.6986213  28.5986853  34.5941448  36.7283106  27.5777531
  36.0640883  61.6997099  41.0843372  35.8315396  61.9503593  41.9783878
  37.0101857  61.8366623  41.0355997  39.4345617  56.6911221  15.0201893
  39.8479629  56.4774275  14.1837287  40.1667929  56.8625879  15.6123590
  34.0421247  58.1555462  49.3451548  33.8329887  58.3652925  50.2553749
  34.9534631  58.4286499  49.2397451  31.6752982  54.6942902  40.4778624
  32.1464562  54.4607019  39.6780634  31.9418883  54.0316486  41.1150932
 111.4723344  17.3170030  63.1685352 112.3192634  17.1057570  63.5613728
 111.0060158  16.4815259  63.1410122  48.4587431  32.7706480  34.0874958
  49.0559196  33.5121942  34.1860771  47.9142904  33.0000544  33.3343863
  39.9602556  30.4382205  35.5466819  39.5192599  31.2779260  35.6757259
  40.8926630  30.6450987  35.6103086  22.8834462  48.2829857  53.6402035
  22.0940018  48.6440754  53.2369423  22.9667783  47.4077034  53.2618284
  93.4654497  55.9985399  83.4303761  93.8048898  56.8779278  83.5967636
  92.6115654  56.1444807  83.0231667  34.0612531  44.7787952  52.5431538
  33.4484315  44.0800905  52.7722740  34.2553902  45.2096081  53.3755875
  44.6562719  50.5817652  62.9675913  45.0475740  51.3421917  62.5376320
  43.8693666  50.9246922  63.3911610   1.0392438  28.9468813  48.1198883
   0.9310937  28.0496454  47.8044415   0.1938445  29.3632817  47.9521322
   5.9957212  73.8956404  37.4868631   6.5729350  73.8421106  38.2485652
   5.5494773  74.7369671  37.5831652   8.0567151  84.2773151  43.4680367
   7.8349406  83.6391068  44.1460752   8.3981347  85.0303268  43.9503717
  30.6619835  34.3862987  63.5005569  30.6868601  35.2020407  64.0007353
  30.3083611  33.7407994  64.1125345  20.4810166  63.7370491  42.3136902
  20.0128150  64.1783381  41.6049719  20.1655602  62.8338385  42.2831869
  16.7694724  17.5526428  82.0031643  17.6295686  17.8687334  82.2798443
  16.3220501  18.3324277  81.6745663  23.6398935  63.4310770  73.8581848
  24.5712137  63.3496809  73.6526346  23.3071923  62.5343227  73.8212204
  44.7769165  62.5599670  37.0542121  44.6436930  61.6997623  37.4523783
  44.7177029  62.3997116  36.1123824  22.3592496  40.8768940  37.0322299
  22.9605985  41.5906906  37.2446084  22.5351858  40.2100039  37.6959634
  16.6740310  27.4685478  64.4730425  17.0452499  28.3360410  64.6339273
  15.8398426  27.4741793  64.9424362  32.4616265  64.6376944  51.2219858
  32.7342200  65.2917051  50.5784035  32.7710462  63.8057089  50.8638048
 102.7686165  33.3321571  62.5082350 102.7355503  34.1586018  62.9900312
 103.3354489  33.5143638  61.7587423  32.1483850  55.1467562  51.2123680
  31.5058684  55.1710606  50.5032730  31.7719722  55.7013035  51.8957615
  46.1991549  98.7341690  30.0514221  46.3208628  97.7940464  29.9187684
  45.7774973  98.8025761  30.9080172  10.2140331  39.3859363  51.6260529
   9.3936479  39.3775010  52.1191311  10.5311334  38.4840226  51.6732550
 109.4554876  47.3288631  10.0330412 109.9340551  48.0168056   9.5704991
 108.9067681  46.9251966   9.3605894   1.4772394  30.4194713   3.1904206
   1.3298219  31.1788106   2.6265898   2.3618910  30.5443859   3.5339612
  25.0162697  36.2114882  26.5143514  25.0999832  37.1380520  26.7395306
  24.6458650  36.2120247  25.6317234 112.5356216  54.9482250  28.3300257
 111.6035788  55.0113106  28.1213450 112.7544027  54.0295601  28.1737638
  38.0329847  36.4652896  51.0569239  38.9370060  36.6159534  51.3331079
  37.7540517  37.3014331  50.6837034  40.1996708  27.5646996  62.6088619
  40.3594446  28.3482194  62.0827436  39.2484450  27.5349426  62.7114296
  28.4466457  55.4009628  75.3327560  28.3707190  56.3440800  75.4776573
  29.1407347  55.1220036  75.9299612  17.8374755  62.3327494  22.1657777
  17.3526704  63.1369877  22.3512387  18.7564909  62.6003456  22.1715355
  10.0460577  65.9569216  36.0813880   9.4413441  66.1529589  35.3657603
  10.8236694  65.6048965  35.6482267  52.9327890  93.0221384  82.7184189
  53.2257983  92.6095336  83.5309053  51.9811544  92.9194491  82.7272886
  20.1384664  35.6568384  46.8866110  19.7614932  36.2904096  46.2761068
  21.0783243  35.6809759  46.7068434  11.5513289  63.5886812  38.7063789
  10.9101474  62.9258823  38.4498358  12.1034873  63.6999846  37.9324508
  17.3684990  43.5446501  33.6637592  16.7866504  42.7862215  33.6140609
  18.2496381  43.1707287  33.6669922  42.1455956  40.1800251  10.0010169
  42.6154518  39.5307708  10.5243993  41.3642025  39.7202063   9.6940571
  70.2731452   6.8364971  88.3376319  70.5075512   7.7543180  88.4750873
  71.1042509   6.3654535  88.3977163   6.9319147  29.6447563  19.8683321
   7.3697615  30.3916073  19.4599998   7.5739086  28.9362645  19.8223364
   9.9717546  49.5316458  26.4886999  10.0907195  48.7503672  25.9486294
   9.0653312  49.7959137  26.3312435  93.6255144  90.7060719  51.3013649
  93.0007409  91.2182140  50.7879448  93.1982778  90.5876827  52.1497059
  38.4663439  87.0173454  62.1881247  37.5345945  86.7983627  62.1769762
  38.5731244  87.6462746  61.4744902 102.7388965  29.9479198  21.4255619
 102.5240301  30.8679247  21.5793610 103.6021166  29.9693823  21.0124969
  13.9106095  63.0699205  28.9293528  13.7140095  63.4783173  28.0862689
  13.3681297  63.5457373  29.5582771  38.7642145  61.4482117  34.9428368
  38.4671354  61.7106152  35.8141112  38.8946176  62.2734070  34.4756389
  95.2686678  44.6030617  26.3408303  96.0542224  44.3033028  26.7983007
  95.2252100  45.5406427  26.5286565  15.7898343  44.5836401  71.5947914
  15.6427121  44.6516180  70.6514120  15.4272985  45.3939915  71.9527435
  40.6541586  75.3046894  36.8172979  40.6832457  74.6636057  37.5275064
  41.2310600  76.0108900  37.1083307  97.2539078  53.1767845  36.1241651
  97.7020846  52.6020193  35.5036712  97.3367546  54.0511465  35.7435584
 104.6651165  65.1276064  42.9985142 104.2622249  65.4852581  43.7897110
 104.5543782  65.8149767  42.3416376 102.1098377   4.2326481   2.9572117
 102.7057029   4.2740757   2.2092354 101.3130428   3.8343603   2.6068985
   2.5742894  29.2866993  41.2936974   1.9991843  29.7336769  41.9147444
   2.5072929  29.8033237  40.4906797 104.8058306  44.5104313  50.8542252
 104.8174994  44.6639824  51.7989540 105.7231925  44.5775270  50.5893135
  17.6260400 102.0513630  51.0572290  17.1283996 101.3985157  50.5649185
  17.5017452 101.8059254  51.9740391  17.7276087  39.5687628  52.2698784
  18.5894263  39.7789836  52.6294756  17.8372979  39.6492410  51.3223982
  19.2073274  42.5633001  83.2648945  19.1468751  42.4731398  82.3138714
  19.4607890  41.6929817  83.5723591   0.6229276  66.7591095  39.0993476
   1.4217471  67.2062683  38.8197613  -0.0577455  67.4301195  39.0477467
   8.7374991  21.9249439  66.3848734   8.7731498  21.5303731  65.5135059
   9.0835756  21.2493896  66.9680405  30.7089591  13.4316218  48.0788088
  30.2853799  14.2854488  47.9905224  31.0096121  13.2208586  47.1948338
  38.2964611  51.0092115   7.2277743  38.7158322  50.2010155   7.5230342
  38.0813384  50.8457804   6.3094914  10.7998967  52.6941872  44.9157333
  11.2769461  53.4967661  44.7047281  11.3078439  51.9973660  44.5002031
 108.5458691  68.0582714  63.0896616 109.4608499  68.3260250  63.0039263
 108.2327984  67.9832315  62.1882248  10.3804278  63.1556225  42.1977329
  11.2650955  62.8558350  41.9886351  10.2259958  62.8429079  43.0891323
   8.9075351  71.5428686  36.8695188   9.6412140  72.1518993  36.7856836
   8.3017975  71.8004847  36.1745739   2.3288305  35.9493542  40.9961414
   2.9937762  36.5054512  41.4021444   2.7401227  35.0869036  40.9391451
  25.3907156  67.2452688  53.9099360  25.3691602  67.1645117  54.8634768
  25.2536154  68.1782007  53.7454128   0.3301551  45.2327681  38.8575768
   1.1402494  45.6901979  39.0828204   0.6134380  44.3536901  38.6061621
  81.6196057  99.1882151  73.4048391  80.8367774  98.6933010  73.1630278
  81.8288752  99.7016686  72.6245797  21.8842578  98.6322784  60.3164005
  21.2183452  98.1103039  60.7639790  21.4709282  98.8930798  59.4933701
  18.4986138  62.7590322  36.4570355  19.1032910  62.5678158  35.7400727
  18.5103869  61.9690466  36.9974232  13.9276028  76.3719845  65.3953123
  14.7841251  76.5798759  65.0219727  13.3539343  76.2691307  64.6359968
  70.9808881  27.6058500  90.9040381  70.8651150  27.3343866  89.9934700
  70.9284691  26.7919748  91.4051219  27.2996855  53.8953686  10.9990633
  27.6952720  54.7359037  10.7683182  26.7607093  54.0869617  11.7665446
  22.9625368  62.3724747  63.9943886  22.9567909  63.0647707  63.3333874
  23.5441709  61.7027235  63.6347103   3.9805475  27.6374793  31.1485720
   3.7812102  27.5545406  32.0811057   3.1479269  27.8856015  30.7468128
  21.6627312  33.9391017   6.9260091  22.2754502  33.2087016   7.0115936
  21.0118198  33.7872338   7.6111954  27.8891253  74.9688530  58.6463213
  28.2994366  74.4588232  57.9479361  27.1994209  75.4658651  58.2064199
  21.4487839  45.4985476  21.2878919  21.1650586  45.0512600  20.4906034
  22.3236632  45.8266068  21.0800600  18.4073400  27.0607448  51.3607502
  19.3157041  26.9286370  51.6321421  18.3685827  27.9788017  51.0926056
  47.3556948  54.7578573  24.6641564  47.1057987  55.6768084  24.7606564
  46.9312048  54.3157387  25.3993917  19.2497063  78.8575029  16.3204312
  18.9079702  79.6663141  16.7015815  19.5418477  79.1102028  15.4446304
  31.5546227  35.3171253  38.3118439  32.2446775  34.9595070  37.7531242
  30.7573318  35.2380157  37.7881050   9.7689813  28.4440374  51.5864134
  10.1905298  27.7998447  52.1552277   8.8978487  28.5637951  51.9645929
  28.5140729  63.0476809  58.3384943  27.8153539  63.7016153  58.3583164
  29.2890334  63.5157061  58.6493301   1.7324218  69.7057009  63.0932713
   2.0510641  68.8094378  63.2001162   1.4860010  69.7638416  62.1701622
  17.7829146  68.1993151  61.2949562  18.3789313  67.6879311  60.7477093
  17.7960765  69.0753984  60.9095526  38.1415653   2.6328105  25.4094982
  37.8325677   2.5190979  26.3082862  38.7047815   1.8750042  25.2521753
  12.0897913  91.3583851  71.3320446  11.3400912  90.7632637  71.3295650
  12.5530601  91.1566353  72.1450090  22.3497939  36.2386370  72.1329212
  22.5849247  35.3107715  72.1362782  22.5108099  36.5232730  71.2333202
  25.2700973  68.8816023  15.3431416  25.4186416  69.8220253  15.4419959
  26.0716105  68.5541153  14.9350226  43.0619717  39.1521931  51.6268921
  43.3114052  39.9882793  52.0205593  43.8940954  38.7327290  51.4081430
  25.9432745  61.1478329  72.0428133  25.4135656  61.0292864  72.8312206
  26.2940264  60.2768707  71.8567228  10.0204611  49.4895792  63.0629492
  10.4034853  48.6179876  62.9636860   9.0872025  49.3268824  63.2000208
  14.8328316  62.0487785  33.6462450  15.2765203  61.8157625  32.8307223
  15.1706898  61.4254141  34.2892885  22.8981781  30.2107000  66.1626720
  23.2550955  30.3509927  67.0396852  22.2422194  29.5232344  66.2781858
   4.1061273  45.6974840  33.6982727   4.3161646  45.3125858  34.5491362
   4.6572387  46.4783669  33.6460257  12.0917451  31.6463900  69.6716309
  11.5282035  31.7301917  70.4408026  12.6063621  32.4534345  69.6626806
  32.2864985  28.5972071  69.5654202  33.1440210  29.0016174  69.4337511
  32.4831533  27.7224708  69.9006748  36.3885212  32.8908920  17.1901250
  37.2193289  32.4195743  17.1280730  36.5789700  33.6384153  17.7568448
  45.6624330   0.9717464  49.3905115  45.2824838   0.0952529  49.3303442
  45.7381160   1.2628841  48.4818029  56.8790576  98.3007210  92.2497215
  56.8667254  99.2295425  92.4807323  57.1874818  98.2833164  91.3437394
  34.3978000  60.5042744   1.6117352  34.8203826  60.1819754   2.4078375
  34.9069405  61.2767601   1.3662338  33.0100346  35.4491472  62.3513603
  32.4252105  34.8087335  62.7564335  32.7565718  35.4547763  61.4283466
  11.2039340  26.8893719  65.5513048  10.6415534  27.4017501  64.9704218
  10.6932557  26.1039329  65.7475805  26.8591022  52.2569942  63.8292789
  26.2005734  51.7531395  63.3510542  26.5905356  52.1931124  64.7458076
   9.1954970  33.4645534  40.6730890   8.3571428  33.8988304  40.8305597
   9.0619123  32.9725075  39.8629785  36.7862511  69.7788048  48.5086107
  37.2438025  68.9380407  48.5089493  36.0034895  69.6257114  49.0378332
  27.6934600  38.0649996  72.3254967  27.8501153  38.5284805  71.5027714
  26.8118072  38.3312798  72.5862885  30.5887556  59.6740532  66.1776447
  30.3397393  60.2057934  66.9336033  30.7953787  60.3114653  65.4940891
  23.5683760 103.8085859  90.7734591  22.7026805 103.8854664  90.3723446
  23.3903095 103.6875837  91.7061337  16.3938153  39.5238471  20.4318976
  16.6921508  40.4241848  20.3029704  15.9385264  39.3036938  19.6192014
  20.3156400  65.4900980  48.7153673  19.6777892  65.3683567  48.0121183
  19.7848701  65.5868053  49.5060396  76.1196397  36.2182927  27.7570868
  76.5701650  37.0298338  27.5232863  75.2655600  36.2870073  27.3304009
  47.7912426  32.3973584  49.5417976  47.6751947  32.3119879  48.5955000
  48.6865950  32.0987535  49.7012091  36.6138673  30.8890867  70.5232477
  35.9883094  30.3380561  70.0528479  36.1721921  31.1055589  71.3444042
 103.8789611  52.2736597  67.9749346 103.7039880  51.3331652  67.9419613
 103.2264100  52.6174355  68.5850382  14.1496372  97.7639103  33.3026886
  13.7914371  98.6495209  33.3627462  14.9020004  97.8490543  32.7170849
  10.3233445  48.5976315  35.3904629   9.4749928  48.8413668  35.0201583
  10.5904043  49.3620682  35.9009051 111.5117189  36.7324090  46.4634752
 112.1290058  37.4036288  46.7544270 111.9349615  35.9039545  46.6887760
  33.8127065  45.1222467  23.4342432  33.0399919  45.6672621  23.2855749
  34.5522618  45.6938648  23.2279730  86.6006646 104.0837798  78.2814932
  87.4599872 104.4945254  78.3768082  86.2201438 104.1180528  79.1591406
  22.2719574  73.4130812  42.0734167  22.9222989  73.9011288  42.5784874
  21.8847370  74.0644836  41.4886379  20.1983070  91.0261822  29.1559219
  20.8779645  90.8927536  29.8165989  19.8476875  90.1505756  28.9927721
   4.0813005  64.0959787  45.7875109   3.1800744  64.0991926  46.1100197
   4.0342572  64.5398664  44.9407625 112.1701664  47.1435165  36.1650467
 112.4181996  46.2194777  36.1943793 112.3411371  47.4656105  37.0500660
  49.2474747  24.6706867  71.0153246  49.4135380  25.4555225  71.5375185
  49.8736000  24.7263908  70.2934504  90.4533885  61.7006159  78.6615753
  89.9903558  60.8651733  78.5993624  90.9647296  61.7517662  77.8540182
  37.7506375  50.3147030  60.8069515  37.5869155  49.3718910  60.7838249
  37.7697849  50.5316830  61.7390347  13.7947071  84.7568226  61.1050081
  13.0366850  84.6221542  61.6737795  14.5411658  84.4629288  61.6271782
  24.4119191  50.0620174  42.8128386  25.3394890  49.8527288  42.9225779
  24.1593599  49.6146297  42.0051956  15.1029611  75.7572174  35.4758072
  15.6383216  75.9626389  36.2422442  14.2793560  75.4318476  35.8391809
  96.1294053  17.1706378  35.8687782  96.2674080  17.8729630  35.2332258
  95.2541612  16.8373120  35.6711102  96.8849240  43.5052252  61.3103628
  96.4792417  44.0044928  62.0191574  96.7918609  44.0648890  60.5394268
  32.1071386  87.5900459  40.0590229  32.1974683  88.0785942  40.8771896
  31.5561247  86.8412209  40.2867842  31.2107849  42.2277546  92.6691723
  31.8480492  41.5233994  92.5508118  30.7134604  42.2407150  91.8514156
  35.4945827  58.6830521  58.3125353  36.1198592  57.9864216  58.1126165
  36.0287023  59.4753695  58.3689785 108.3674107  36.5267301  59.3099642
 108.4025951  36.0444212  58.4839058 107.8969680  35.9450459  59.9070883
  89.5758794  26.9956112  25.8684850  89.7057794  26.0522795  25.7711029
  90.0419138  27.3794937  25.1257348   1.5603645  70.1312113  23.7648320
   1.4517032  69.3840933  24.3532538   2.3428325  70.5783319  24.0874124
 111.7508824  47.2624350   1.1766266 112.6163395  47.0262861   0.8427873
 111.9295280  47.8498697   1.9109565  83.0784413  98.2552307  68.7201202
  83.0665204  97.3816317  68.3290708  83.6506125  98.7661474  68.1475699
   8.1979400  39.0774035  25.7988715   8.0543202  38.9916587  26.7413449
   8.7549603  39.8508453  25.7108641  53.1971916 106.4362400  89.7736016
  53.4011122 106.0944002  90.6441152  54.0445348 106.7012518  89.4158140
  19.1995883  84.7603607  59.7324085  19.3306518  85.7080555  59.7627878
  19.7234297  84.4699287  58.9857626 110.0949870  74.3236685  56.0396576
 109.8096083  73.5874271  55.4986048 109.7532640  74.1266012  56.9117928
  24.5956397  64.7491074  41.8129444  23.7276959  65.1527214  41.8111944
  24.7049522  64.4122934  40.9236574   7.7274549  61.5205765  49.3741322
   7.8515291  60.6280708  49.6970415   6.8097812  61.5520430  49.1037321
  45.7619524  29.3672013  37.6505351  45.9215164  28.4378791  37.4858117
  45.0751257  29.6062851  37.0281672  37.9091358  35.5020404  46.9992638
  38.7329292  35.9464765  47.1994495  37.2980285  36.2102985  46.7964029
   1.6088842  47.8781128  73.9933777   1.8026748  48.4219408  73.2298803
   0.6742644  48.0113840  74.1513586  38.3312702  14.8650885  68.5853338
  37.9728866  14.8937976  69.4724464  38.0408478  15.6836724  68.1830835
  21.7512965  66.3694286  24.9799776  21.0674047  65.7513952  25.2379608
  21.3013935  67.0066500  24.4252086  14.2240822  55.9549284  42.4768066
  14.4450665  56.5243387  41.7398071  14.2753708  56.5252113  43.2438612
 109.4817747  61.4821577  41.0834026 110.2515258  61.5140486  40.5153370
 109.7601454  60.9585667  41.8347979   3.4765793   3.1833553  35.7617354
   2.7742530   3.3355617  36.3940358   4.2226458   3.6712646  36.1104012
  41.9332600  54.6995592  27.2435045  42.4881649  53.9220667  27.3053122
  42.4037838  55.3696632  27.7392840  40.1691294  16.5298545  71.7637062
  39.8574638  15.6792557  71.4545488  39.6873593  16.6802979  72.5770330
   2.7125832  61.6550589  20.8132696   2.6931012  61.5396023  19.8632574
   3.6193585  61.8925571  21.0071349   4.4681153  30.2700138  29.1357398
   4.5592871  30.7388663  29.9652529   3.6555418  29.7728848  29.2296529
  65.3717277  98.6028272  35.1599121  65.6938640  98.4927369  34.2652941
  65.7450495  99.4357783  35.4481030  39.0117431  70.8886242   7.8382200
  39.1485929  70.2181005   7.1689641  38.7978458  71.6800451   7.3441237
  22.5024939  33.3231401  54.9925423  22.0080566  33.5493207  54.2047596
  21.8517399  32.9435277  55.5830050  42.4209261  97.4140167  53.4932518
  42.5774193  97.4835110  52.5514936  42.9151392  98.1407833  53.8724470
  43.5953665  63.3353901  63.3078384  43.0318975  63.1836843  62.5490808
  44.3924046  62.8408909  63.1169653  55.1844666 106.2372974  74.9066687
  54.5343659 105.8723716  75.5070257  55.2277110 107.1656350  75.1359081
  19.6521699  56.5767384  52.1156597  20.4176807  56.7501163  51.5677834
  19.8586786  55.7560539  52.5629473  58.4476159   7.3396032  86.3737536
  58.5894952   7.5919406  87.2861278  57.5809584   7.6860826  86.1614174
  27.8981805  71.6715050  67.0359802  28.4519577  72.3645639  67.3954630
  27.7038360  71.1076593  67.7846718  30.8802485  16.7966950  22.7008986
  31.5482044  17.1162498  23.3074903  30.3140807  16.2426770  23.2382512
  37.6999402  39.8426723  59.7308111  38.6252189  39.7356486  59.5102739
  37.4206424  38.9740300  60.0200987  18.2697654  24.4428492   0.2096907
  18.9179635  24.8533177   0.7820418  17.4536788  24.4771719   0.7087468
 101.4102409  15.0095861  88.7620363 101.7140052  14.8819702  87.8633294
 101.4041517  15.9594457  88.8802004  46.6968012  20.5782437  63.7100554
  47.3423052  20.9281564  63.0959511  46.5416050  19.6826553  63.4099483
  41.5025139  52.5603867  40.0143290  40.7543135  51.9634199  40.0066471
  41.3736534  53.0958652  40.7972050  24.4785857  99.9054050  87.7052307
  24.6017814 100.7598305  88.1187820  25.1236081  99.8862648  86.9982624
  35.8805871  52.1532440  40.6689739  36.2736249  52.9320765  40.2750540
  35.6667423  51.5904236  39.9248385   2.0338628  26.4599323  69.0993834
   1.7988497  27.3504186  69.3602180   2.9901266  26.4434338  69.1383553
   6.4279890   8.2203156   9.6648186   6.5421271   8.3272231   8.7204802
   5.6237787   7.7086562   9.7524667  20.7412815  69.0679550  62.1289444
  21.4594507  68.4648418  62.3205709  20.7146907  69.1127396  61.1731625
   3.3631918  67.7970886  46.6739941   3.2068807  68.6312389  46.2312889
   2.5871128  67.2724390  46.4773321   4.3406370  59.3633413  10.9286714
   4.3301293  59.5628834  11.8647826   5.1764923  58.9186239  10.7879448
  22.0681524  78.9864826  22.2362375  22.4246407  78.1829548  21.8574405
  21.1649466  78.7644625  22.4624228  23.6909485  21.3236070  51.4142323
  23.4721518  21.0121036  50.5359793  23.1666279  20.7772064  51.9996929
 101.6133629  61.3266039  87.9583645 102.4953853  60.9664631  88.0509281
 101.7399345  62.2753620  87.9668713  37.1097684  43.0818653  42.2379637
  37.9014468  43.3613014  42.6977348  37.4311686  42.5564861  41.5052176
  24.8651958  40.8610678  48.8056993  25.1765132  40.6874132  49.6940422
  23.9204335  40.7137537  48.8499117   4.5592736   4.2901247  89.6481204
   3.8302755   3.9325683  90.1550204   4.7009563   5.1627414  90.0151274
  41.5512514  44.5311451  79.2111492  42.0359135  43.7513208  78.9405727
  41.0562563  44.2504406  79.9808311  43.1107092  79.2267036  29.0884781
  42.4250793  79.4570017  29.7154641  43.9254522  79.3062258  29.5845580
  91.2211323  78.1551933  56.7116356  91.7651367  78.3417034  55.9464502
  91.5690327  77.3336124  57.0583344  15.2612817  80.0298405  28.0672646
  15.4510558  80.8807087  28.4625411  14.3342721  79.8806906  28.2533789
   3.8244575  65.8151865  43.7717247   3.4097111  66.5511513  44.2218113
   4.0940428  66.1729336  42.9258108  19.9329960  56.1769485  58.8189697
  19.0633190  55.8332300  59.0232944  19.7660673  56.9270420  58.2482433
  42.7283907 101.6662502  27.5311828  41.8762779 101.9759846  27.2242594
  43.3537531 102.3021984  27.1837306  13.3578050 107.0104504  35.6622982
  13.7504327 106.5932274  36.4291120  12.4427259 106.7301464  35.6793499
  38.5889316  78.7354136  54.8541307  38.8946319  79.2623281  54.1157961
  38.7629318  79.2775488  55.6235790  71.9366194  21.6644954  25.9658289
  71.4018632  20.8988571  25.7559228  72.5387860  21.3575363  26.6436195
  63.6595131   6.2327098  13.9734542  64.2959095   6.0804653  14.6720612
  63.5248686   7.1803855  13.9744627  37.7684474 101.6842747  55.3401518
  37.9255605 100.9189987  54.7870731  36.8948007 101.5413761  55.7042217
  43.5697651  44.7558308  57.6500893  44.3237257  44.1705036  57.5782108
  43.0402374  44.3791294  58.3528900  17.9868853  46.9248056  39.9721956
  17.6720321  46.8263245  40.8707476  17.1976781  46.8645430  39.4339085
  27.5362849  12.9731512  48.6394596  27.7726603  12.6179457  49.4963074
  27.9395199  13.8410652  48.6204481   1.4086880  70.6628942  51.9464779
   1.7568871  70.6331682  52.8376007   1.8882918  69.9790335  51.4789915
  56.5739012 102.2452545  50.7757187  56.3964844 101.6323853  51.4892626
  55.7457590 102.7072048  50.6452847   1.4619747  54.8017836  53.9288759
   1.3460487  53.9525604  53.5027170   1.9565392  55.3220129  53.2956314
  86.4419556  60.3152418  85.0361061  87.3491478  60.5364084  85.2466488
  85.9193230  60.8923149  85.5929375  29.4073248  84.7494984  55.0656366
  29.0081120  83.9277840  55.3513813  30.2249146  84.4847107  54.6441269
  23.9160919  61.0539246  52.1147108  24.2168403  60.1918554  51.8272829
  23.6172199  60.9159231  53.0135202  34.9226117  81.5482903  68.6231804
  34.7918320  80.6073856  68.5055923  34.8071718  81.9174194  67.7475929
  22.6196814  85.2835464  24.6794820  22.8662682  85.8484840  23.9471817
  22.7628875  84.3945122  24.3549109  33.6487007 102.5148296  48.1391716
  33.7243938 102.9211140  49.0025568  34.4830966 102.0630455  48.0130768
  87.1793474   7.0708067  17.1435654  86.7040314   6.6310102  17.8484738
  86.5081336   7.2727043  16.4916908  42.6007080  88.0636120  69.8948431
  43.2257843  88.7661266  70.0736809  43.1172276  87.2605515  69.9621582
  35.8110571  78.4252357  70.4894352  36.7490363  78.5908079  70.3944778
  35.4360223  78.6820602  69.6470451  39.9706030  62.2635984  59.5773458
  39.0194798  62.3405504  59.5020103  40.2540064  61.9473314  58.7195063
  45.5411530  58.5009384  58.3069086  45.9638119  59.3518496  58.4232759
  45.0763273  58.5763550  57.4735546  48.0162477  67.8750420  66.4095640
  47.4860477  67.0879221  66.2847996  48.7490511  67.5864649  66.9535780
  26.1329556  29.5448589  42.8907299  26.6258311  29.9811411  42.1957731
  26.7512155  28.9173317  43.2651520  15.4224348  81.5335178  35.4232883
  15.2335930  82.1876621  36.0960865  15.0224710  80.7287121  35.7527661
  38.3266003  16.5681457  16.2641442  39.2338219  16.8730449  16.2494946
  38.3335189  15.8246040  16.8669176  53.6382675  44.3904448  18.1581438
  53.5354042  43.4420729  18.0791485  53.5315418  44.7181463  17.2651410
  28.5882521  54.1393423  46.1865187  29.5181513  53.9449072  46.0694265
  28.3745885  53.7784481  47.0469475  40.3610182  97.9504490  27.8665590
  40.4544497  97.3205948  28.5812497  40.4287386  98.8058376  28.2907724
  38.6700726  60.6389236  51.5601206  38.0361581  61.2354088  51.9583559
  39.3094563  61.2143803  51.1402750  39.8566198  14.2798221  21.4380479
  39.8104000  13.3848870  21.1016154  40.7830191  14.4126058  21.6390061
  43.1381035  52.9056358  53.6326694  43.0070782  52.8984976  52.6845074
  43.7527227  52.1899939  53.7949181   8.3088028  24.6612835  56.1527491
   7.6099503  24.8650312  55.5311966   8.2912976  25.3853059  56.7786217
  43.4272242  82.9578781  21.6437149  43.4993744  83.7595177  22.1617913
  43.3375597  83.2633495  20.7410097   9.0826762  80.0386429  33.4553123
   8.8571757  80.6521416  34.1546011   9.4291550  79.2719650  33.9118075
  57.2971153  28.3103991  33.6939883  57.2945404  27.6154780  33.0357242
  57.2372484  27.8484344  34.5301914  35.9063721  46.4501381  31.7264938
  35.0343585  46.1037207  31.5372396  36.5019965  45.7352304  31.5020609
  98.2401739  77.8806496  28.6963010  99.1508494  78.0822659  28.9113641
  97.7796768  77.9299688  29.5340014  27.7997327  31.1663628  36.3273358
  26.9037056  31.0463715  36.6419291  28.3499169  30.8804250  37.0565605
  39.3400979  52.7539635  20.1719737  39.1666698  53.2442379  20.9755826
  38.4722781  52.5602913  19.8175573 108.0933772  62.8921795  58.9042425
 107.3848836  62.4307537  59.3529701 108.8938175  62.5175762  59.2719364
  35.3109813  91.5327072  48.7908220  34.7871780  92.1943092  48.3389950
  34.9878073  90.6982517  48.4510136  64.1399718   2.9959773  79.4738674
  63.6197878   3.2087421  78.6990261  64.8303128   2.4186420  79.1477633
 104.8241536  49.3992376  81.5920067 104.9445079  50.2522516  82.0092773
 105.5477796  48.8667965  81.9223118  25.9341264  48.3960199  46.1607027
  25.8491302  48.3771181  45.2074718  25.6348109  47.5324249  46.4450264
  19.1708720  81.3005638  40.4195356  19.2061126  81.8116474  41.2281036
  19.1019833  80.3921318  40.7132006  47.6222610  93.0359745  43.1884956
  46.8850136  93.5163021  43.5652971  47.2285986  92.2474861  42.8149462
  19.1859722  72.3282862  14.8476243  19.4611394  73.2435560  14.7947550
  19.8974490  71.8909168  15.3153217  30.8788586  46.8556881  42.4839115
  30.1364374  46.9420052  41.8859243  31.6491222  46.9736052  41.9280148
  41.1796427  61.3593388  57.3594427  41.3602829  60.7496023  56.6440248
  41.3649845  62.2229719  56.9906425  26.2180042  77.8061247  30.1116705
  26.9346786  77.2000790  29.9237370  26.5196705  78.6474180  29.7689557
  37.7040505  62.4218464  25.7836103  37.3194194  62.1171856  24.9617386
  38.1275082  61.6463947  26.1518359  28.4249878  51.7270136  44.9497128
  28.7659407  51.5035820  44.0836525  28.7188792  52.6257896  45.0982571
  45.7389736  75.5130005  24.7912860  44.7880745  75.6099796  24.7401619
  46.0792780  76.1599493  24.1733193  41.7578745  49.6286917  81.7902279
  42.5949574  49.8334694  82.2068787  41.9605398  48.9176702  81.1822796
  24.1521621  46.0915041  91.0173798  24.1249704  45.1352358  90.9850597
  25.0851178  46.3037872  91.0450077   7.6573688  79.4053602  76.0267639
   8.0869836  79.5855045  75.1905775   7.2439337  78.5507679  75.9044170
  83.9160131  85.1289082  14.4720709  84.6473907  85.2252579  13.8621247
  83.7353967  84.1889572  14.4828856  36.5871835  42.7508783  14.3298459
  35.8148289  43.3161831  14.3182981  36.2853980  41.9252682  13.9510000
  15.0507724  53.3780479  31.7259312  15.3462243  52.6196241  31.2222099
  14.5304465  53.0050278  32.4375129  25.0353074  60.9959841  74.6145010
  25.8818769  60.7726336  75.0013685  24.4715190  61.1848354  75.3646421
   1.0397145  39.7983742  26.4540386   0.2272031  39.4746041  26.8429232
   0.7596331  40.4919481  25.8567595  19.7417414  64.6431637  25.5304813
  20.1465702  64.7049427  26.3956571  19.3149960  63.7863636  25.5263543
  38.4381580  74.2366886  23.4442043  38.4731603  74.3104792  22.4904966
  37.5229120  74.4100666  23.6644197  20.1696706  36.9142032  21.8950200
  19.7104251  36.2975454  21.3248825  20.1305628  37.7480984  21.4267015
  40.3166199  85.7497883  40.5254555  40.7382250  85.8037090  39.6677971
  40.4146004  84.8332024  40.7833052  36.0375953  31.5701509  63.3969021
  35.8317733  30.7827878  63.9008141  35.4894257  32.2525501  63.7842941
   4.9640802  70.5818176  41.4126492   4.7713542  71.1464500  40.6641340
   4.4592354  69.7853851  41.2481451  15.8977711  47.9198456  25.3041482
  16.8167031  47.6720905  25.2021122  15.6790495  48.3699942  24.4882083
  64.5920632  34.2326848  70.7871592  65.3169773  33.9922445  70.2101696
  64.8037348  35.1186578  71.0812342   9.5876127  27.0460725  75.4548597
   9.6984899  26.8510747  76.3854027  10.3608465  26.6670322  75.0369215
  29.1541791 106.0283184  30.3605628  29.9897003 105.5726242  30.2581763
  28.4931564 105.3600407  30.1797581  21.3698745  64.6217632  55.0842476
  21.6097140  64.6528339  54.1581011  20.6796503  65.2787018  55.1750851
  29.8959827  43.6652803  30.7129574  29.9666905  44.5626926  30.3875613
  29.8231125  43.7599182  31.6626763 111.1448663  97.0812988  56.7266607
 111.9470502  97.1746159  56.2128258 111.4482971  96.9890594  57.6297951
  43.8525105  65.1912212  24.7298574  43.8101101  64.7503519  25.5784273
  44.7182703  65.5992222  24.7149158  27.7148461  68.1408262  42.0912981
  27.3929334  69.0420675  42.1104288  27.3263645  67.7312708  42.8643274
  55.3480625  82.5000095  17.4799454  55.2094936  83.2726192  18.0277693
  56.2970591  82.4566555  17.3626447  21.3869619  77.2777271  29.0056086
  22.1784496  77.6138830  28.5851598  20.6720042  77.5756836  28.4432125
  37.4516463  68.4822416  36.4274788  37.0135617  68.6985636  37.2505951
  38.3176994  68.8825226  36.5046930  31.0542917  81.7879105  27.0988679
  31.0815048  80.8817196  27.4059772  30.7100868  81.7285347  26.2076712
   3.2162252  95.3394508  38.0242252   3.8646027  95.5778790  38.6867881
   2.7645329  96.1595440  37.8251028  98.5563181  68.3296585  26.5746212
  99.4726513  68.5162735  26.3703203  98.5611604  67.4274778  26.8944359
  42.2765017  63.1092644  60.8669329  41.6846132  62.6151657  60.2996874
  43.1429482  62.9770041  60.4822111  69.7360992  62.6457882  87.1550274
  69.9123812  61.7205048  86.9846916  68.7823963  62.7007151  87.2155762
  41.0272837  77.7903509  71.3344002  41.4989424  77.5208807  72.1225357
  41.7153072  77.9783010  70.6960201  17.6079249  97.3131657  50.7769060
  16.9561005  98.0086708  50.8642435  17.1123648  96.5035915  50.9003687
  11.6987979  69.2628622  27.6713443  12.1552157  68.9098835  28.4350967
  12.1559381  70.0808525  27.4760246   4.7121683  38.4486794  32.5780416
   4.7354010  39.3663359  32.3067546   4.5886877  37.9611945  31.7635822
  59.7485161 100.7968903  27.8379059  59.2415237 100.3328228  27.1717000
  59.2639542 101.6091728  27.9849648  58.7036371  81.3935566  42.5812197
  59.4592810  80.8185673  42.4602890  58.4095907  81.2178516  43.4750319
  34.4099096  13.9058716  14.0000069  33.9787677  14.2797167  13.2315075
  33.8695815  13.1513340  14.2344105  28.2466149  64.1459274  76.6608238
  27.7094769  64.3237257  77.4328995  27.8505230  63.3684063  76.2673712
  29.8935962  66.9774055  24.5626259  29.8366570  66.0364008  24.3967795
  29.2465162  67.1391964  25.2491689   5.4103613  83.4979630  42.2403288
   4.8084572  83.9766312  42.8102541   6.2812012  83.7301445  42.5627613
  31.9395757  69.9796867  68.4874773  32.4884701  70.6690168  68.1136179
  31.8241930  69.3520451  67.7740479  14.0022314  40.2285480  57.3649836
  13.0885983  40.2102900  57.6498938  13.9559627  40.3866911  56.4220715
  23.7728190  81.6176796  12.5382006  24.3448400  82.3850632  12.5501108
  22.9160786  81.9614792  12.2851574  13.3658695  64.4088411  33.2570887
  13.8653469  63.6063576  33.4079790  12.6662600  64.1465807  32.6587582
  40.0772429  79.8261166  23.6683702  40.0509739  80.0138664  22.7301335
  40.9682131  80.0544357  23.9334679  39.4833875  73.5570955  60.8784056
  38.6189771  73.5697174  61.2893391  39.5063281  74.3511391  60.3443670
  27.5242305  69.4214010  68.6511183  27.9937625  68.9821148  69.3602037
  27.2157311  68.7092257  68.0908775  30.2692389  67.9004431  72.1237898
  31.0757303  67.4253559  71.9235563  30.2837706  68.6555338  71.5356922
 101.6857110  63.2752800  80.7611752 102.1497665  62.4811697  80.4960728
 101.5495788  63.1700897  81.7027855  37.3440003 106.6329670  22.7433085
  37.9264212 107.3915768  22.7043152  37.5913191 106.1823845  23.5507989
   1.4741446  74.4550848  51.4739037   1.3636135  75.2281713  50.9204149
   0.9158175  73.7901831  51.0709047  29.4435167  84.2856312  38.4146810
  30.2795887  83.8615799  38.2213092  29.1220975  83.8361454  39.1962695
  24.8235750  88.1990528  51.2591982  25.0587177  88.5540390  50.4019213
  24.7551298  87.2549629  51.1169195  51.3885021  40.5668068  59.9779034
  52.1814585  40.3531647  59.4861603  51.5025425  41.4831686  60.2298975
  54.5601940  80.8537579  37.2779846  54.9360752  81.5607452  37.8024936
  54.3362141  80.1756859  37.9153824  77.1417714   7.9368305  39.0419078
  77.5974608   7.3674774  38.4218907  77.3122359   7.5437831  39.8978806
  41.9493246  72.8542328  17.6151013  42.2208500  73.1804132  18.4730721
  42.5720119  72.1548557  17.4167097  26.4019918  96.3382244  54.7981167
  26.4450502  96.0738277  55.7170725  27.3130059  96.3329029  54.5044231
  48.6464214  80.6156254  23.9186001  48.0201197  81.0443783  23.3353782
  49.4842720  80.6816196  23.4604692  31.5190649  57.3819733  67.2179699
  30.9518290  56.7448139  66.7838049  31.2704682  58.2235813  66.8357038
   2.3817344  51.9491100  37.2852159   3.1213012  51.7442989  37.8573394
   1.8140899  52.5062799  37.8177333  64.2303944  83.4698486  34.2009568
  65.0871420  83.4178066  34.6246362  63.9165354  84.3513203  34.4027877
 105.5615370  25.2944899  47.0476389 105.2739660  25.9753704  46.4394140
 106.1044686  24.7122908  46.5161324  45.5855894  67.3064518  24.3517208
  45.1476336  68.1446648  24.4994450  46.0232925  67.4105358  23.5068440
  46.7222691  80.3200340  31.9327903  45.8965492  79.8358822  31.9362926
  46.7535114  80.7340431  31.0703230  34.6553230  45.8863020  61.2593937
  33.9490891  46.2246752  61.8098211  34.3901443  46.1075068  60.3666544
  31.1052632  70.8772612  50.6660652  31.1622620  71.3834810  51.4764547
  31.9773555  70.9476900  50.2778292  86.9831990  79.8475504  65.7198048
  87.5747393  79.4286060  66.3449478  86.1523078  79.3851233  65.8294010
  98.6939813   3.0826282  48.0594301  97.8281785   3.4118938  47.8181744
  98.5164309   2.3650264  48.6674976  18.3411443  62.6243162  52.5032043
  17.9950631  61.9400311  53.0761003  18.8711345  62.1530867  51.8603325
  21.8003654  81.1923027  74.2477894  22.4146056  81.9255257  74.2114115
  20.9756303  81.5847397  74.5342112  27.9434729  89.0834332  26.5975618
  28.0355620  89.9725151  26.9400311  28.4140992  88.5350418  27.2252584
  37.7035069  77.6423740  58.1003332  37.7250862  78.4155846  57.5364971
  37.9226398  77.9745722  58.9708853  40.8592606  65.9686804  31.3993359
  41.4526892  65.8909750  32.1463537  40.6280470  65.0655651  31.1821723
  25.6424165  48.1552887  31.5182924  26.2221575  48.9163733  31.5478826
  25.4207873  47.9872751  32.4341989  24.5828795  79.3704844  49.9021053
  24.8481441  80.2867508  49.9816465  25.0562716  79.0498638  49.1344213
  27.3146248  73.8474655  28.2691622  28.0685139  74.4281578  28.3725071
  26.5859914  74.3288708  28.6610460  25.2794218  86.7247105  53.8313484
  24.7889495  86.8336201  53.0166054  25.1690316  85.8007336  54.0556812
  20.9515548  50.5466080  42.9792166  21.3829327  50.7055140  43.8187981
  20.6302357  51.4066553  42.7084684  45.3446245  37.6841474   7.6854283
  45.1399803  38.6133623   7.7898747  46.0910463  37.6691437   7.0863777
  23.5472107  69.9712610  53.0367422  23.9516687  69.8802710  52.1739769
  22.9101396  69.2581129  53.0790329  52.7795362  86.2703133  21.3674855
  53.2847834  86.9123936  20.8688068  52.1587324  86.7946434  21.8733621
 106.4231114  50.3167915  49.6093035 106.3725744  49.4714880  50.0555468
 105.5168657  50.6227207  49.5724201  15.2671158  72.0503950  36.9906974
  14.7126460  72.7540588  37.3278213  16.1428964  72.4344921  36.9493437
  24.8017359  40.7164383  34.3808413  24.2020726  41.4624548  34.3906617
  25.5926490  41.0504532  33.9576125  40.7472086  72.1428013  36.0007334
  41.6644859  71.8741894  36.0525799  40.2544928  71.3632250  36.2570906
  12.9948914  96.2981510  73.6902332  12.2459626  95.9773731  73.1877995
  13.7266314  96.2699604  73.0737972 108.3947332  50.8732939  55.0355911
 108.9232574  50.5396032  54.3106461 109.0061401  50.9341860  55.7695532
  27.9968286  80.3189564  35.5054760  28.0205560  81.1702728  35.0685167
  28.4489012  80.4636955  36.3366890  42.8642511  87.4690628  55.9612560
  42.2676992  87.8309155  56.6165590  43.6206388  87.1693039  56.4654922
  42.7947712  85.1877975  23.1096530  43.2995367  85.8822250  23.5330009
  42.8062201  84.4660759  23.7383127  31.3351870  73.9764786  37.5979948
  30.7124066  74.6756840  37.3992825  30.9732842  73.5464430  38.3728027
  39.3118525  68.8430786  32.6827717  38.8042808  69.3527555  33.3143044
  39.3099809  69.3763399  31.8878770  92.2123407  52.9185152  29.1525865
  91.8584250  52.6501894  30.0005102  92.6204751  52.1268320  28.8020277
  17.2843587  56.2557173  61.8159723  16.6608953  56.6485357  62.4268913
  18.1074083  56.2203598  62.3033857  30.4465938  70.8915329  66.2592554
  30.8145404  71.7341185  66.5255260  29.4992256  71.0269737  66.2787867
  16.6439450  48.2058525  84.9345779  17.0574546  48.0447006  84.0864849
  17.3411071  48.0564070  85.5732155 108.9021106  98.3869076  53.0023384
 108.5200728  98.7301636  52.1945906 109.6836622  97.9144001  52.7157211
  40.4108429  43.8596058  49.8478985  40.5023861  44.7978497  49.6819305
  39.4796014  43.6825895  49.7149038  85.1330485  50.1549036   8.9271080
  85.2510949  49.3858988   9.4847214  84.4741167  50.6806738   9.3805420
  56.2807560  67.9592323  51.7535973  56.0738134  67.0411205  51.9281864
  55.8679962  68.1414461  50.9094095  25.9807682  44.8167467  19.7289169
  26.4903426  44.7473955  18.9216030  26.3280773  44.1246271  20.2915716
  32.1642399  58.1194448  69.8519564  32.7363038  57.3523855  69.8763657
  31.8511677  58.1560755  68.9481449   1.8070894  84.0433693  25.9303451
   2.0488298  84.9690056  25.8989120   2.2243458  83.7137508  26.7262602
   6.8747085  61.1117887  69.0825272   6.6120833  61.4537334  69.9371195
   7.8009015  61.3413525  69.0070295  47.8156996  74.9171591  42.1424150
  47.8104258  74.2897463  41.4195299  46.9503307  74.8294401  42.5420094
  32.1123242  90.0847626  25.4026175  31.7552876  89.9740028  26.2838054
  31.7137146  89.3798161  24.8923302  10.8691347  82.2206306  29.6426463
  10.9761262  81.9917774  30.5659056  11.1177850  81.4269924  29.1687894
  26.4343333 101.2169743  52.0385075  27.3039007 101.6158199  52.0702505
  26.5581226 100.3428364  52.4083567  31.9273949  60.7746077  70.3503418
  31.9123936  59.8412609  70.1385021  32.6983166  60.8813715  70.9075785
  34.2077565  73.1476736  21.8400288  34.3893433  72.6181698  22.6164818
  34.7467875  72.7569771  21.1522579  29.4417381  72.6405811  61.9796228
  29.9091244  73.1716776  62.6243877  28.5586882  73.0094767  61.9603109
  31.3033891  38.7802005  61.5876532  31.1442113  39.0109396  62.5028849
  32.2570586  38.7575436  61.5087318  17.4612248  48.1858730  58.0200195
  18.0638003  47.4421549  58.0242872  16.8418872  47.9963779  58.7248182
  34.2283297  33.2897758  58.0925798  34.2092395  33.9408684  57.3911905
  34.4408798  32.4677634  57.6505947  97.5838695  48.6866474   5.8152866
  97.7300452  48.8579082   6.7456269  97.2586618  49.5168591   5.4671246
  40.6359863  49.6424341  22.7656794  41.4022923  49.4643259  22.2204423
  40.7175541  50.5672455  22.9986978  46.4483166  66.3284349  63.9915323
  46.1722994  65.5789375  64.5190716  47.3040438  66.0754204  63.6452055
  19.8559082  78.1252909  70.4119396  20.0665951  78.3375216  69.5026541
  19.1871667  77.4432516  70.3499317  55.4180989 103.5852926  89.4629929
  54.8569140 102.8098553  89.4613004  55.8184907 103.5930794  88.5935921
  42.3254251  83.3963108  32.9302144  43.1283903  83.1901169  33.4087110
  42.0249033  84.2214966  33.3109784   8.8797891  17.1482873  57.6736784
   9.3460584  16.4727819  58.1661367   9.5378596  17.5085270  57.0792007
  40.8000517  24.7944427  18.9677787  40.6732559  25.6384873  18.5344851
  40.5212450  24.9446464  19.8710716  27.2686553  80.2964497  29.2951012
  28.0686927  80.2082443  29.8131680  27.5771451  80.4278946  28.3985591
  28.4645772  73.6136103  44.3474579  27.6172352  73.3213282  44.6833372
  28.3774590  74.5638466  44.2720079   5.0717753  51.7362595  38.7929010
   5.9858555  51.7324400  39.0769339   4.8268405  50.8114624  38.7615514
  91.3455103  70.9148359  28.8325334  90.6632636  71.3093758  28.2892942
  91.2899302  71.3839340  29.6650529  51.9987726  74.2922640  21.0920811
  52.4743128  73.8929844  20.3636074  52.5976753  74.9561405  21.4338732
 108.5858475  48.6761332  58.2110071 107.7272765  49.0880394  58.1139517
 109.1934656  49.2882299  57.7958345  47.7718639  77.7261305  66.8919468
  48.4200191  78.4193659  67.0166588  47.1048069  78.1202221  66.3298416
  47.9338884  71.0505295  50.8793497  48.8627148  71.0601473  50.6482172
  47.4801540  71.2271261  50.0552273  28.9261556  86.5149117  41.4485264
  29.2010689  86.8431473  42.3046350  29.5293427  85.7952118  41.2629652
  20.2343893  71.6496468  66.5865374  19.3507385  71.7707586  66.9339943
  20.2992988  70.7093668  66.4195347  23.7902522  58.1231928  72.7693939
  23.9227247  57.3727036  72.1902227  23.0539942  58.5971355  72.3827028
  72.7143097  67.9477453  18.9994109  72.2201967  67.2440577  19.4200182
  73.6310196  67.7328491  19.1717255  19.7543836  45.5764341  48.2500076
  20.2622533  46.3811398  48.1463385  19.1018283  45.7893229  48.9171505
  36.3794255  95.1606369  61.7558718  36.4180541  94.2723274  62.1103191
  35.6809521  95.1275349  61.1022091  62.3493242  78.9547586  71.7673588
  62.4282074  78.0335331  71.5196562  61.9584703  79.3759918  71.0018301
  57.9351282  59.1288853   1.9554497  57.0358086  58.8060999   1.8982638
  58.4769154  58.3641195   1.7609429  69.2134857  74.7839451  33.8009620
  68.8058090  74.5603275  34.6376348  69.0709162  74.0132380  33.2514906
  47.2569704  75.8171511  52.6426983  47.4136782  75.4784203  51.7612600
  48.1304741  75.9062338  53.0238628 106.1513548  78.0365515  52.5186586
 105.5140088  77.3963881  52.8352213 106.0075192  78.8085461  53.0659914
  29.4255280  69.4121218  47.6910734  29.4482517  69.1738081  48.6178541
  28.5784197  69.8424625  47.5751305  17.0046127 104.8988056  38.6446500
  17.3800290 104.5222473  39.4405770  16.6517353 104.1476631  38.1676841
  56.4435768  82.8765869  38.2666636  57.2167063  82.3398113  38.0923653
  56.3967848  82.9262733  39.2214274  20.0796247  49.1658831  59.8063755
  19.5948792  48.8323736  59.0513706  19.4172025  49.6009827  60.3431368
  15.7808375  76.3733482  11.5758717  15.8564818  75.5549526  11.0852170
  14.9097753  76.3360977  11.9709611  96.1696444  66.7523813  24.7530413
  96.0444997  67.3255062  23.9966702  97.0856045  66.4799166  24.6981430
  36.8163943  78.1664515  46.5075302  37.2621322  78.8062382  45.9523487
  35.9031129  78.4528971  46.5173292  28.2344103  38.4056520  65.1152182
  27.5854445  37.9306579  64.5961285  27.7201653  39.0251398  65.6329250
  31.5311050  75.3592110  79.0528345  31.4277434  76.0503960  79.7069025
  30.6965256  74.8906565  79.0655756  58.8723993  82.7675724  67.4156523
  57.9277468  82.8931332  67.3256445  59.0514946  82.9502678  68.3380270
  32.1185565  46.8358707  54.8541546  31.8887520  47.6959467  55.2058506
  32.9662347  46.6338539  55.2502108  26.6654038  88.1822681  73.5857916
  26.4654469  87.5729275  72.8751993  27.5023627  88.5743141  73.3367300
  45.6228733 102.0046997  60.3173447  45.8346939 101.9100189  61.2459993
  46.0488653 101.2575817  59.8971367  39.8837519  76.2268257  34.1136193
  39.8498082  77.1417570  33.8343692  40.4791975  76.2270832  34.8630667
  76.0851812  81.4283657  44.2628860  75.3506660  82.0397758  44.2091131
  76.3568354  81.2998104  43.3540916  28.7803698  71.5060949  58.0437374
  29.4701552  71.5160465  58.7073088  27.9736900  71.6633272  58.5344315
 100.4718066  12.2742080  52.7886820 101.3713504  12.1597289  52.4821854
 100.0676680  11.4144229  52.6717091  33.4987736  50.3986883  19.3286073
  33.9885306  49.8449850  18.7205112  33.5189724  49.9203348  20.1574612
  31.7267895  83.9053917  58.6035776  31.7265439  83.8796806  59.5604324
  31.2530398  84.7080135  58.3854246  18.7437975  47.6892996  24.5756459
  19.2288816  47.0175076  24.0964603  19.3152130  47.9209185  25.3078151
  69.2111301  96.5447044  23.8498354  69.7377157  96.5507030  23.0505228
  68.9988089  97.4652863  24.0036988  23.9743757  56.9859791  14.3345881
  23.5396671  57.5616693  13.7054300  24.8425841  57.3715687  14.4519222
  51.7671871  87.8027725  49.2211294  51.7954874  86.8995285  48.9055681
  51.6417646  87.7223301  50.1666641  60.1921558  71.6566992  60.3429985
  60.1507521  70.8390665  59.8470211  60.8811665  72.1631336  59.9128532
  31.0488439  77.7668428  58.3993530  30.3413415  78.3774376  58.1923532
  30.7952404  77.3819160  59.2382479  14.6112287  93.0298996  63.9908028
  15.3717780  92.4978828  63.7568045  14.9099398  93.5641766  64.7267056
  45.4553223  86.9402027  57.2697115  46.3299417  86.9253635  56.8810511
  45.4524660  86.2038422  57.8812647  57.0354891  93.1078053  31.8220639
  56.4824915  93.7559891  32.2582817  57.6243019  93.6258125  31.2732410
  37.1998000  81.2051678  48.3553171  36.3613486  81.6656017  48.3202505
  37.6437068  81.5737534  49.1190672  47.5851822  99.6906281  73.4232426
  47.0243931  99.5746708  74.1902494  47.7267551 100.6358433  73.3707428
  73.1581020  93.9383030  39.4566822  74.0318680  93.6304569  39.2158580
  72.5935268  93.6376476  38.7445760  31.6166306  89.0611935  48.9589262
  32.3119473  89.2146015  48.3192158  31.8627763  88.2419109  49.3883801
  33.6056209  73.5856295  60.8834600  32.7388048  73.3959484  60.5244637
  34.1713476  73.6630201  60.1152182  65.4643417   2.2686195  27.8243399
  66.3545538   2.2234916  27.4754596  65.0085355   2.8744888  27.2400498
  80.7886600  97.1441174  70.3645086  81.6686821  97.4988747  70.4907608
  80.5909729  96.6956520  71.1867189  80.3625679  99.5429230  24.9391365
  79.8283005  99.6075249  24.1475487  80.7356453  98.6620808  24.9050713
  15.6080392  27.1075804   3.0035031  16.4081004  27.3978502   3.4415352
  14.9160722  27.6465494   3.3868038  49.1643238  88.8138962  32.0597124
  49.8657084  88.6013222  32.6754189  48.8631678  89.6813774  32.3299265
  76.8404770  88.0879021  28.7667370  77.4086475  87.3934746  29.1001916
  77.4152994  88.8488483  28.6844420  45.5704021  41.6951323  64.4322634
  45.0923300  41.8949223  65.2371025  45.0063753  41.0785341  63.9654446
 110.5509536  58.9894724   9.1324019 110.9313665  59.4390488   9.8869872
 111.2688044  58.9302015   8.5019982  35.6450438  66.1871290  15.3403127
  36.4629936  66.6169882  15.0904906  35.6127810  66.2691116  16.2934494
  71.0456467  85.0774097  42.8926086  71.4839554  85.0542068  43.7432432
  70.4322004  85.8091831  42.9591417  40.8752108  55.5375051  36.7882943
  41.8083191  55.7276821  36.6914845  40.8022642  54.5996904  36.6110516
  52.3896456  92.4403191  76.1422253  52.3876905  91.5174580  76.3963032
  51.8748617  92.8767204  76.8210363  34.3972921  70.2233601  29.6875644
  34.9733901  70.3248787  28.9299130  33.5145211  70.3300762  29.3332243
  48.6680317  88.1626415  18.9625263  48.9939976  88.1983757  18.0632472
  48.8077497  89.0461826  19.3032122  36.7044258  80.1963425  17.4097013
  36.7892551  80.7348633  16.6229188  37.4889636  79.6479464  17.4103224
  54.4666672  87.4576283  59.1682148  54.3527222  87.3534012  60.1128769
  53.6069679  87.2547531  58.7994480  56.8985605  83.4524536  49.0028858
  57.7785206  83.4103012  48.6285543  56.6685677  84.3810368  48.9701033
  43.2151556  80.7888794  65.6978273  43.2113123  81.5286160  66.3052893
  43.5460854  81.1544037  64.8773956  34.9450922  69.8910475  19.4248748
  34.6504331  69.6098089  20.2910805  35.5102277  70.6441975  19.5969772
  45.7797146  83.6619377  41.2439680  45.4524755  83.8383102  42.1260357
  46.3689804  84.3926048  41.0565710  36.6977048  61.8268585  61.8011522
  37.5684857  61.6125107  61.4664507  36.1030936  61.2762022  61.2917900
  44.5543623  83.5333347  66.8158388  45.3477526  83.2285786  66.3755083
  44.7533035  83.4554005  67.7488899  23.3237433  87.1381760  76.4974070
  23.9581776  87.8460407  76.3849354  23.8297963  86.3381863  76.3554382
  64.3660117  18.6467647  57.8486824  63.5148836  18.7845039  58.2644272
  64.6957184  19.5293807  57.6798010  50.7297659  64.1040134  52.7703285
  51.2104511  63.8672161  51.9771671  49.8186731  64.1758823  52.4857616
  65.6581069   7.0406722   3.3837870  65.9195209   7.9245090   3.1254986
  64.7611047   6.9524192   3.0615553  44.9230814  82.2201920  54.2700195
  45.2809715  82.9665565  53.7893009  45.4984522  82.1260929  55.0291824
  78.6522246   3.3221340  11.3967824  77.7031136   3.4311866  11.3373590
  78.8515616   2.6183414  10.7793868  24.0699601  67.5498772  32.2246838
  23.2875490  68.0551100  32.4456048  24.1027355  66.8579865  32.8853202
  37.7293587  57.0311499  41.2434340  37.6050091  56.4083862  40.5272388
  37.7785873  56.4862251  42.0288372  36.5738440  93.0122662  54.8072815
  37.0909166  93.7476540  54.4785500  36.8154454  92.2781754  54.2425108
  37.5505090  89.3038177  59.4744349  36.6128206  89.2748070  59.2843533
  37.6863098  90.1601791  59.8799372  32.7060056  86.9899559  50.2193594
  33.4934878  86.8150425  49.7040796  33.0309367  87.1574783  51.1039972
  53.1517506  85.0224972  29.4883966  53.9800835  84.9589920  29.9638557
  53.3157015  84.5712757  28.6603022  25.4776120  62.2142029  43.2249451
  25.5577159  61.6656923  42.4445915  25.3256559  63.0954933  42.8836775
  75.3622341  93.0026627  55.4077387  75.8191347  92.7613735  54.6019745
  75.6888628  92.3853588  56.0623264   6.3900614 101.1164379  31.8214107
   6.0424489 100.4443169  32.4076200   5.7823712 101.1268711  31.0819268
  57.2124672  47.3649311  28.7125850  58.0783701  47.3152685  28.3076429
  57.2600698  48.1293011  29.2867851  30.1832318  58.0807066  21.2569261
  29.4586635  57.7656651  20.7165766  29.9248743  58.9666367  21.5111136
 107.0740173  28.6538999  87.7063006 107.8412101  28.1679456  87.4038101
 107.2944830  28.9176576  88.5996428  22.4998236 105.1540756  39.3879414
  21.9377398 104.3900013  39.5163035  22.4553418 105.3289223  38.4478974
  87.2602511   0.9229659  28.4378624  86.9419862   1.2095832  29.2938924
  86.6650725   0.2172183  28.1850576  42.2675419  93.8591671  52.6036453
  41.4263821  93.8652897  53.0604172  42.2259712  93.0899620  52.0354748
  34.9071980  73.8978195  31.6691709  35.5480528  74.3929625  32.1794319
  35.3628945  73.6840248  30.8550048  82.6664162 105.2239418  37.8610492
  82.8003025 104.3713284  37.4470854  81.7663670 105.4603386  37.6368761
  72.8562546  70.7995892  38.1526136  72.8471804  70.4213524  37.2733593
  73.2017374  71.6837263  38.0294538  63.4089327  71.4563847  57.3465872
  63.2763147  70.6296873  56.8826771  64.3536425  71.4990377  57.4947166
  57.2212887 102.8379440  47.8148890  57.7398872 103.1033039  47.0553684
  56.6964626 103.6095619  48.0279684  21.2566924  64.1258907  19.3617892
  20.5793834  63.9722204  18.7031019  21.0796428  63.4773779  20.0431991
  10.7858717  79.4972181  61.9889832  10.3698802  79.8900795  61.2216234
  11.5644431  80.0331593  62.1400642  59.2370272   1.9273948  54.6374559
  58.3803559   1.6868591  54.2846203  59.0879227   2.0333576  55.5770111
   6.4531624  55.9051132  46.2156582   6.5832692  56.5791464  46.8827248
   6.1143106  56.3808775  45.4573298  32.2169542  97.5428963  33.1053662
  32.2038388  97.8098202  34.0245032  32.9022813  98.0811882  32.7093887
  51.0664798  18.7168502  20.7498050  51.6083480  18.6801242  21.5380073
  50.1669563  18.7082672  21.0769391  81.5182687  29.4672489   8.2829970
  81.8569184  28.7889861   8.8673913  82.2941113  29.9559879   8.0083370
   7.5002211  70.8492184  60.3584385   6.7368877  70.5466700  59.8664808
   7.3868710  70.4734135  61.2314510  34.5078564  71.3185453  64.9447823
  34.1626239  72.0572281  64.4433975  35.3429437  71.1131668  64.5244503
  79.0908241  97.1987724  60.3302717  79.1490602  96.7853355  59.4689274
  79.9931812  97.4367809  60.5432034  30.7383537  80.8737469  44.1951180
  30.4454732  80.8345222  43.2846689  31.6129231  80.4849052  44.1823435
  30.3319025  80.3181744  56.1445570  30.9150600  80.9301376  56.5936279
  29.7124147  80.0391006  56.8187857  78.5633945  86.6927814  34.9242949
  77.9256201  87.0339489  34.2973304  79.3216324  87.2697544  34.8326087
  50.6336069  74.2380476  56.0851049  49.9660969  73.6032629  56.3453150
  51.4411497  73.9133120  56.4834166  30.3425336 100.0170326  41.3242912
  30.0506115  99.6358967  40.4961920  29.6432734 100.6233215  41.5686035
  45.2450991  88.9487743  51.7820740  44.7923326  88.1991673  52.1684837
  45.5245447  89.4727993  52.5327682  29.8186779  70.4448557  15.7670391
  29.3961883  71.1639643  16.2367368  29.4539332  70.4890633  14.8831630
  80.8438873  79.3417740  72.0781946  80.1008320  78.9271069  71.6398430
  81.4898968  79.4711018  71.3838005  37.8961921  99.9355888  43.0713034
  37.7769399  99.5227146  42.2160006  38.8445449 100.0279903  43.1625175
  35.3653646  84.1998959  68.7578583  35.9667754  84.3005657  68.0200195
  34.9645972  83.3408928  68.6247158  36.8419552  94.6047592   3.1253427
  36.3003230  95.3689480   3.3225161  36.2297201  93.9642715   2.7631530
  32.2670937  75.0280333  71.0349512  32.2535086  74.0950155  70.8216000
  33.1904840  75.2735043  70.9772444  77.8558780   5.8414268  50.9212112
  77.4815894   6.5713500  50.4279089  77.3983670   5.8608055  51.7617702
  61.7348289  73.4942198  16.0330248  61.8005991  73.8562155  16.9166899
  62.4639416  72.8770304  15.9721494  25.5267811  68.3408451  45.9175968
  25.2394938  67.9722643  45.0822258  24.7957587  68.8898516  46.2012053
   6.7887473  79.3976688  49.2729473   6.5836549  79.0020418  50.1200867
   7.7440912  79.4560146  49.2608547  50.5290890 102.1614170  34.5907688
  51.1663914 102.8093338  34.8912430  50.8894539 101.8355942  33.7660217
   5.3991091  97.2366142  50.4024744   4.9555826  97.5447559  51.1927700
   6.3313127  97.3235703  50.6016445   2.5290129  91.9772625  79.4743919
   2.8734910  92.8122902  79.7911024   2.4574792  92.0916462  78.5267448
  27.2031116  61.6554689  67.7634144  28.0815530  61.4514685  68.0842829
  27.3504758  62.1049356  66.9312525  48.3058167  76.6887093   6.8695402
  49.1002989  77.0573664   6.4833832  48.4958887  75.7552481   6.9631362
  38.7325263  86.2517166  45.3939247  39.6314216  85.9257603  45.4383039
  38.5247755  86.2549400  44.4595480  43.8230610  93.6646461  46.7721939
  43.7381506  92.7334499  46.9768858  43.0455875  94.0668678  47.1594715
  39.6322274  49.9589777   0.7076874  40.1982784  49.2096663   0.8930207
  39.5412469  50.4045391   1.5499648  23.3824492  75.8336115  53.4001350
  24.1108084  76.1476421  53.9359570  22.6429176  75.7851601  54.0059233
  44.6627474  87.7820873  66.9532061  43.7106705  87.8249264  67.0423317
  44.9281979  87.0840931  67.5520229  63.8759422  73.9794779  53.0018330
  64.5571899  73.9030170  53.6698818  63.3479977  73.1879187  53.1064367
  22.4765539  94.1845703  23.9222145  22.6112032  93.3874702  24.4347954
  22.3639965  93.8751888  23.0234098  37.1181560  74.9263620  33.4009671
  36.7329264  74.8339319  34.2723370  37.8299594  74.2865944  33.3846831
  44.1667700  46.8656683  20.6562996  43.9039230  46.0069227  20.9875011
  44.6807432  47.2493553  21.3668275  41.2921810  92.3989677  36.6464806
  40.3429556  92.3115444  36.5595269  41.4801455  93.2859135  36.3395166
  44.9850845  82.3677254  44.1343594  45.4791927  82.5090408  44.9418974
  44.0864563  82.6100922  44.3578911  40.7896233  64.8428106  42.9919529
  40.1552534  64.3142605  43.4761477  40.7261419  64.5270252  42.0905733
  26.4834929  59.9537563  33.8882303  27.0611954  60.2502584  33.1849670
  26.6204047  59.0072155  33.9276242 102.3906804   4.9078941  45.0116587
 102.5738479   3.9685439  44.9940300 101.8441869   5.0598621  44.2406321
  38.7489247  51.9585037  63.0733967  39.4230151  52.4934149  63.4925652
  38.6203432  52.3639154  62.2158766  45.5369854  65.7413769  61.4774704
  45.8120918  66.0401201  62.3442459  45.9096527  66.3835621  60.8733559
  23.8591170  54.4594669  46.6170263  23.4187508  53.9756346  45.9183025
  24.7855639  54.4360113  46.3774967  48.4835482 101.0474300  56.1163187
  49.3799305 100.8378887  56.3786602  47.9342699 100.5416870  56.7152786
  63.5383797  80.2420330  56.8153811  64.1566133  80.8546638  56.4170170
  62.7385139  80.7536888  56.9364262  13.9030027  90.6346798  53.6489868
  13.2111883  91.2749100  53.4824467  13.5239971  89.7974396  53.3814001
  49.8532915 103.8541031  45.0997162  49.4617844 103.2592583  45.7393408
  49.7274351 104.7257042  45.4748154  46.5586090  68.7720633  36.2401199
  45.9734201  69.4040632  36.6576862  47.0385981  69.2838955  35.5890703
  77.2424322  29.4409864  87.6667327  78.0505157  29.7839563  87.2851444
  77.4294706  29.3735998  88.6030591  69.5912361  97.9884434  14.4128680
  69.1070414  98.7365246  14.0633619  69.7878838  97.4508381  13.6457014
  67.1054792  83.9235115  77.8031349  66.6298246  84.7269630  77.5922775
  67.1250868  83.4339619  76.9808292  19.9259686  42.6695681  25.0719905
  20.2261496  43.5052299  25.4294729  20.5361676  42.4810314  24.3590069
  22.7276087  71.5363741  63.8160181  22.7100611  70.8643103  64.4973755
  22.0312881  72.1452761  64.0622044  18.8619590  76.5250969  88.0507278
  18.6968732  77.4591732  87.9223537  18.1764233  76.2416315  88.6556339
   1.2974548  47.1530931  89.5195997   1.3407897  48.1092565  89.5098362
   0.4216837  46.9564073  89.8521233  53.6628342  89.2330647  57.0204258
  53.8174915  88.6890221  57.7926493  54.3968821  89.8472977  57.0092678
  72.9427958  95.2832603  65.2495050  72.6691675  96.1228466  64.8801041
  72.2225428  94.6862888  65.0468206  51.6918993  83.8173389  70.4345655
  51.4464331  83.0916595  69.8606586  52.2621632  83.4199142  71.0926533
  36.5974236  77.3000097  43.6331797  35.9192729  77.3259878  44.3082094
  36.8441868  76.3768721  43.5769796  50.5330849  59.6643305  60.6407309
  50.2558708  59.7124147  59.7258139  51.4830828  59.5552731  60.5977345
  46.7856836  64.8459005  13.7038291  47.3988676  64.5131683  14.3592095
  46.1531210  64.1372204  13.5860646  35.6295991  82.1646976  22.7258205
  35.2160192  82.0993805  23.5865855  34.8974109  82.1967697  22.1101069
   5.2399206 103.6006260  62.6630497   5.7911152 102.9112434  63.0334091
   5.4724294 103.6203671  61.7347288  18.2779098  84.3306828  47.7554178
  18.9850926  83.7544250  47.4654961  17.6658607  83.7499619  48.2075119
  67.8646851  89.8813248  64.5112896  68.4179688  90.6624126  64.5105553
  67.5735331  89.7931862  63.6037159  33.0229616  84.6047020  76.2838173
  33.7314701  84.2348003  75.7571125  32.2413850  84.1298008  76.0012531
  65.7545757  64.4862080  43.0957413  65.4218292  64.8761606  43.9041042
  65.3066874  63.6424589  43.0347919  30.8661699  89.5914364  35.3131866
  30.2040482  88.9002132  35.3193521  31.3047075  89.4954967  34.4677830
  43.6814690  95.2992058  15.7392097  43.2388878  94.5685387  15.3073835
  44.6058226  95.1829433  15.5194592  52.5471592  72.8186941  49.2155790
  52.4099588  73.6489487  48.7594128  53.4794617  72.6340818  49.1017437
  36.8304491  75.8588886  56.3197231  37.3512959  76.5249872  56.7683458
  36.2617826  75.5004168  57.0011568  53.0619192  92.7947998  33.0143785
  52.8892136  93.6075211  32.5391006  53.3296156  93.0804157  33.8878751
  42.8669262  83.8666344  69.5537901  42.7271986  82.9229641  69.6324348
  42.2871017  84.1360664  68.8414383  52.9047918  85.6447697  43.5462332
  52.9469013  85.7698727  44.4942904  53.6226320  86.1764622  43.2023716
  68.8579130  98.7718582  64.7762823  69.5669985  99.4130802  64.7286558
  68.2815456  99.1028500  65.4651022  86.6082812  11.5169715  64.0519905
  86.4316369  12.1939563  64.7052288  85.8208085  11.4975929  63.5081673
  40.8673239  82.8968620  65.8692646  40.4805326  82.4879265  66.6434717
  41.2818193  83.6933708  66.2009382  32.3298335  81.2703037  73.2830048
  31.4468908  81.0239601  73.0074024  32.7916217  80.4374790  73.3798599
  18.0614078  52.1933174  21.0077453  18.2796597  51.7865562  21.8462801
  17.8327918  51.4591408  20.4377007  75.7572126  74.7486305  54.1754961
  75.7867193  75.2250862  53.3458281  76.2160730  73.9278173  53.9967728
  46.7269182  69.8191118  45.6547785  47.1791410  70.2706432  46.3674164
  46.9303417  70.3369522  44.8758745  39.1262603  79.1547966  60.2053404
  40.0307131  78.9051437  60.3947496  39.2016411  79.9703264  59.7098970
  37.1072245  90.3783607  43.2822180  36.9024301  91.0696793  42.6526356
  38.0624461  90.3853703  43.3433437  55.0301838  84.9067402  36.8900251
  55.6695414  84.2387295  37.1374440  55.1609802  85.6104946  37.5255132
  74.2061806  94.8209763   7.4788135  74.4386292  94.1973686   8.1667906
  73.3101034  95.0849438   7.6876080  36.0674882  77.9028082  63.9508390
  35.1328349  78.0375576  63.7943268  36.4832640  78.6978340  63.6172295
 106.2125633  26.0216730  89.2746917 105.2959678  26.2271850  89.0907103
 106.6108487  25.9097497  88.4115154  37.8828263  73.9323664  36.7411137
  37.8441334  73.9294481  37.6975274  38.7299562  74.3284655  36.5368867
  28.3934045  94.9278736  51.4210272  29.0291309  94.2133045  51.3825893
  28.1829071  95.1107025  50.5053329  25.1091194  36.8829632  23.6279583
  24.9324417  36.2835240  22.9029131  24.4065237  37.5312185  23.5794139
  92.5147533  72.3483086   4.5340526  93.2304573  72.2388363   3.9079446
  92.3166180  71.4595461   4.8291337  71.3510418  70.7729959  34.7775793
  70.6638384  70.5098295  35.3897262  71.6338730  71.6324186  35.0900412
  75.9464694  23.7155914  19.9442518  76.3810349  23.4231758  19.1430795
  75.0983334  24.0471553  19.6493542  53.5226870  66.6436672  10.2839613
  53.1624746  67.3543835  10.8143985  53.7138987  67.0491886   9.4382524
  29.5895243  79.2230463  45.7695341  28.8651609  79.8141813  45.9746885
  30.0928354  79.6847153  45.0988817  38.4622240  90.1381397  15.2614963
  38.7477398  89.4564247  14.6532393  39.2728400  90.5607986  15.5452108
  17.8333676  89.5782661  50.3931189  18.2305384  90.4137802  50.6388903
  17.2787118  89.3482590  51.1385632  16.9641876  74.1264009  84.6615314
  16.6831446  73.6279297  83.8942146  16.3599622  74.8677921  84.6999931
  48.0483341  94.4239235  70.1296139  47.9248524  95.1649761  70.7227612
  48.0989552  93.6615086  70.7061529  37.5523424  80.9823132  40.6620026
  37.1381044  80.6653309  41.4645958  37.6453686  80.2016163  40.1160288
  32.0939279  81.9116783  76.0357332  32.0563722  81.3816071  75.2395916
  32.6323795  81.3996696  76.6391897  52.4166012  99.4364834  63.0951405
  53.0429554  99.2268467  63.7879324  52.4651241  98.6922550  62.4951410
  76.2149525  62.2408342  57.1243238  76.6651106  62.3027563  57.9667950
  76.6944742  62.8397369  56.5519524  18.6236954  58.9907122  73.0435848
  17.8070951  59.3837023  72.7354383  18.3791757  58.1022072  73.3024359
  33.5138655  62.6781797  68.3962679  32.6724267  62.4740267  68.8043547
  33.3194590  63.3946896  67.7920723  40.8344364  52.0832300  23.0959630
  41.6215372  52.5631142  22.8382421  40.2458000  52.7553940  23.4393740
  43.9449167  83.9493656  19.0566921  43.6862040  84.8280907  18.7789583
  43.7876415  83.3995533  18.2890964  63.9611530  73.9828730  42.1189117
  63.8724995  73.4712934  42.9230642  63.4137154  73.5241556  41.4816380
  70.9191656  71.6578817  61.1801100  71.6065598  72.3152065  61.2880135
  71.0743666  71.0308409  61.8864775  25.5125618 104.9533749  68.5138607
  24.7371936 105.4665375  68.7412453  25.7517529 105.2561760  67.6378870
  68.3563662  94.2664337  25.1640606  68.8082170  94.9294376  24.6420503
  67.7673340  93.8348293  24.5452023  82.5701428  19.0150737  72.3006487
  83.3093263  19.4570827  72.7183485  82.3526240  18.2976913  72.8958559
  52.8474760  85.5510807  32.8968406  52.6592731  85.5888939  31.9590878
  53.8030529  85.5669785  32.9501820  45.9283066  98.4443951  12.9220068
  45.3374052  98.6575603  13.6442447  46.6875267  99.0111351  13.0584633
  39.7090626  70.2687025  30.5057025  39.9353385  70.1807022  29.5798039
  39.9491692  71.1686182  30.7264566  40.0029755 100.5496120  67.6838017
  40.4472733 100.4078102  68.5196972  40.3767681  99.8904228  67.0990229
  73.6593580  83.3887100  31.4117217  72.7407312  83.5899353  31.2332201
  73.9385796  84.0683174  32.0252419  79.2598057  69.5893526  30.1131701
  78.7209558  69.6077442  30.9040761  79.9266911  68.9266825  30.2930665
  13.6050010  97.3906136  25.3273559  13.2273090  97.9636383  24.6601081
  12.8501785  97.0604134  25.8146358  47.2004890  96.6119480  41.9957781
  47.8046846  96.2715530  41.3359976  46.3542986  96.2276649  41.7666149
  31.4838386  80.6311989  11.4719927  32.1207452  80.2183342  12.0551991
  31.1546612  79.9137878  10.9305131  43.2874727  92.6903629  65.3512716
  44.1405392  92.4235344  65.0087595  43.4531260  93.5307598  65.7785082
  41.5831995  57.7736139  39.2905784  42.1898031  57.1070576  39.6130204
  41.1805296  58.1334257  40.0809097  22.0500088  55.3774834  89.8448467
  22.0727324  54.4699860  90.1484394  22.6517892  55.8402348  90.4279041
  45.9025145 105.2189445  47.4716663  45.0279474 105.3526974  47.8370142
  46.4341640 104.9423981  48.2180595  28.4546185  98.5865402  12.4258196
  27.8754830  99.0387058  11.8123245  29.1940618  98.2995796  11.8899894
  40.2604532 100.0016403  40.1033926  40.2062368 100.8922195  39.7567344
  41.1972857  99.8496914  40.2278423  55.8799553  99.0060234  12.1960044
  54.9955082  99.3136215  11.9975853  56.4556599  99.6492386  11.7824090
  56.3159800  90.0863838  50.4528809  56.5876389  89.1872787  50.2683449
  57.1049690  90.6091213  50.3098297  62.5546932  98.6851692  46.6816139
  61.7874765  98.4940338  46.1420918  62.1936560  98.9239979  47.5353384
  68.8454056  92.3242474  78.8412952  68.4674549  93.0584908  78.3572865
  68.0895853  91.8099976  79.1250467  25.0940061 100.1908112  36.8328714
  25.1065683 100.9963226  37.3498082  26.0146570  99.9396515  36.7583776
  75.4295588  90.1846790  66.5153790  75.1684237  91.1007881  66.4216375
  75.1153421  89.7630119  65.7155704  55.1059341 103.2705784  41.6719246
  54.7623682 102.3898602  41.5218306  54.7947979 103.5031700  42.5467587
  75.2518368  83.9639759  18.4608030  74.3148136  84.0719414  18.6237621
  75.5632830  84.8465347  18.2600319  33.3740139  63.7266445  44.9182987
  32.7882600  63.0991936  45.3418875  32.9666710  64.5784521  45.0755358
  46.1832809  99.2788887  33.4660101  46.7767239  99.0723896  34.1880989
  45.3464079  99.4680500  33.8903856  80.1714706 105.6989098  23.4994960
  80.2962208 106.5462112  23.9269876  80.1171494 105.9069347  22.5667524
  42.4989319  82.0028400  14.6747816  41.8385696  81.3734818  14.9647212
  42.1758461  82.8488922  14.9846923  12.5224116   2.9305267  57.9763079
  12.0964434   3.7240314  57.6520681  12.1896841   2.8272914  58.8678551
  78.0907345  84.1838551  41.3983011  77.8499413  84.1776752  42.3246956
  77.3578596  83.7539864  40.9574652  37.5274324  63.1326342  22.1756673
  38.3135557  62.5870943  22.1505642  36.8022919  62.5107241  22.1153903
  57.0413971  63.0861759  56.9875240  57.3425102  63.8324499  56.4692163
  56.6026831  63.4797907  57.7417231  70.3001118 101.9471359  59.1516972
  70.5947161 102.6014519  58.5181999  70.1991320 101.1454201  58.6385775
  54.3404377  24.9624824  32.2544456  54.2728842  24.0974712  32.6587033
  54.3242050  25.5731773  32.9913473 105.1185227   9.3097972  79.4989681
 104.2982818   9.6283626  79.8757267 105.8002616   9.7917556  79.9671316
   2.4886709  89.5548725   3.1588468   1.8281044  89.6772575   2.4770069
   2.4610125  90.3653622   3.6673552  94.1719485   2.2153377  36.2870193
  93.4671784   1.6985511  35.8965516  93.7331582   2.7700424  36.9320011
  40.8622694  78.7437773  40.4356432  40.6272173  78.4007311  41.2977934
  40.0234127  78.8796711  39.9950957  34.3482041  85.7453537  46.1471987
  33.9848685  86.2417221  45.4138231  33.7110329  85.0484085  46.3037729
  65.3975105  85.0237656  69.0024471  65.4208088  85.8777714  69.4341469
  64.8641825  84.4778347  69.5801592  33.9927435  85.8023071  72.8902817
  33.1289124  86.1830330  72.7319336  34.4297218  85.8377075  72.0393801
 101.3004208  17.6473426  55.9479332 100.9375382  16.7902183  56.1712933
 102.1343327  17.4505615  55.5211973  50.0651312  99.9732399  11.9532454
  49.5694447 100.7753754  11.7886138  49.9030256  99.4290829  11.1826277
  93.1589843  12.6871681  35.7540417  92.8671838  11.8866348  35.3179026
  92.7899457  12.6279830  36.6352558  59.0238333  72.7684498  57.5725746
  58.3047771  72.1828270  57.3354435  59.0594339  72.7292204  58.5283089
  55.0404943   1.0781860  56.3172197  55.2188409   0.3421497  56.9026041
  54.6733845   1.7539596  56.8871164  71.1011458  19.4103526  13.2389891
  71.9033552  19.4850063  12.7221560  71.2277819  18.6207866  13.7650883
  74.1209650  79.8883057  58.3880234  74.7323275  80.5341053  58.0338955
  73.2583904  80.2872181  58.2737589  81.8132020   1.6655826  62.6174021
  82.0137740   2.2358608  63.3595562  82.3600961   0.8921432  62.7550030
  50.0921917  75.2036190  63.0638361  50.7350826  74.4990158  62.9834461
  50.5544806  75.8970833  63.5346127  61.7945099  75.3201294  66.5784168
  62.2143888  74.7776461  65.9108496  62.5191879  75.7731819  67.0094824
  40.2909660 106.2556839  86.9541931  39.7547317 105.8022118  87.6046085
  39.6991897 106.8971443  86.5610409  65.7964802  86.8542480  42.9438782
  65.7017279  86.7736912  43.8929653  66.4767122  86.2203789  42.7164364
  55.7970858  93.8877010  78.8707304  54.9667358  93.6463737  79.2812300
  55.7844734  94.8445797  78.8492584  61.0213089 105.1527786   4.2391324
  61.4744568 104.4646549   3.7519321  61.1933041 104.9484253   5.1583105
  45.0462008  67.8629780  19.6310019  44.1645479  67.5345516  19.4547725
  45.6165218  67.3243189  19.0825343  70.8433390  99.0734673  36.1553192
  71.0485268  98.1391239  36.1889577  71.4451742  99.4736004  36.7829490
 108.3643628   0.1457309  23.7178826 109.1087581   0.4909324  24.2107749
 107.6174022   0.2509975  24.3071198  43.7636614  94.9126816  50.0454760
  43.7858057  95.8259678  50.3312206  43.1657410  94.4844627  50.6581402
  47.5056744  79.6376896  49.9425411  48.3138371  79.1656780  50.1433277
  46.8138885  79.1069508  50.3374815  59.4045544  99.8043156  20.3186631
  60.3244257  99.8762608  20.5734086  59.2989683 100.4480553  19.6181738
  95.2961804  39.2451841   6.6215050  95.2606513  40.1151831   7.0190918
  95.1186706  38.6438734   7.3448002  44.7808838  95.0393963  44.6776915
  44.6350622  94.4091320  43.9721870  44.4664574  94.5947456  45.4648733
  47.8977727  67.4213045  89.7980550  48.2554959  68.1248777  89.2565269
  48.6677694  66.9789236  90.1553049  61.7749357 101.2302399  21.5066791
  62.4965572 101.5188980  20.9479523  62.1435833 101.2242317  22.3900223
  41.8225241  82.1138000  52.7693415  41.9924831  82.5875950  51.9551754
  42.5549793  82.3472118  53.3396626  68.8007379  -0.2296448  76.6662502
  69.5577360   0.0652408  77.1724415  68.6882449   0.4399204  75.9915161
  96.7784930   1.0507869  53.5841274  97.0082761   1.9799995  53.5821772
  97.4606944   0.6364726  54.1124964  61.6503620  93.8162136  36.4738107
  60.9112072  94.0778446  35.9247875  62.2514391  94.5602322  36.4367032
  50.8487082 100.7765102  72.2029924  50.6524897  99.9134731  72.5675440
  51.7774200 100.7347012  71.9750071  85.4155445  82.2340393  15.9794617
  84.7513008  82.1317387  15.2978826  84.9324894  82.1409607  16.8005717
  48.2140255  90.2681732  40.7186604  49.0270758  89.9381351  41.1010933
  48.4900808  90.9931850  40.1579666 110.3847466  94.8101139  49.0428543
 110.7578598  95.5738068  49.4830751 110.7035543  94.8731518  48.1425095
  73.2704782 105.1547337  50.1341963  73.9107895 105.0907135  49.4255829
  73.2651711 106.0826492  50.3691053  27.1573567 105.6169701  40.3371382
  26.2577176 105.3319359  40.1770210  27.0811081 106.2724781  41.0304832
  43.9646864  91.0998058  56.2488794  43.5427427  91.9029808  56.5539980
  43.2827187  90.6432533  55.7562160  69.6087790  75.8982801  30.8426142
  70.3680468  76.1902142  30.3381133  69.9262524  75.8450890  31.7440629
  82.5084306  11.2542915  30.5596137  82.6514340  12.1071720  30.9699368
  83.3245421  11.0729217  30.0934529  30.1883245  86.4818478  36.6904831
  30.1949334  85.9371758  37.4775815  29.5588040  87.1761799  36.8849730
  40.4685688  91.0260105  68.5300255  39.8933864  90.8987427  67.7755690
  40.0213623  91.6825199  69.0641022  37.5521374  94.7878551  12.3346138
  37.2427773  94.1752720  13.0019009  38.4493423  94.5092487  12.1512270
   0.1479294  35.0467014  33.8446069   0.1649334  34.8157882  34.7733808
   0.8492567  35.6904792  33.7449837  68.5977221  81.4166546  53.3880472
  67.9465532  81.6490936  52.7260971  68.2116985  80.6747150  53.8535976
  72.3233366  73.0434179  35.5717659  71.6071987  73.4615326  36.0498405
  72.7148485  73.7510967  35.0597644  55.1093674  97.7135372  40.7448006
  54.3873549  97.3917580  40.2050018  55.5827427  96.9239807  41.0070038
  43.4683561  97.3636436  44.1105413  43.9470720  97.8724670  44.7648811
  44.0132093  96.5906715  43.9626217  44.4830513  60.9426498  53.9864349
  43.5855532  60.8462572  53.6679363  45.0161171  60.4700041  53.3471584
  57.0534182  92.0891285  27.9513025  56.8791485  91.1743450  27.7298975
  57.2491169  92.0757103  28.8881874  70.4711009  19.4547557  25.2040434
  69.9320174  18.7158775  25.4863238  71.2793327  19.0534019  24.8848176
  25.2555203  83.4731007  54.3305397  24.8425341  82.7875328  53.8054991
  26.1453891  83.1549454  54.4826698 113.5444165  18.4466266  28.3587027
 112.9398013  18.1887721  27.6628685 113.1923295  19.2737197  28.6876154
  68.0821609  74.6649551  63.2488441  68.4020138  74.2307138  62.4580431
  68.8724089  74.9916172  63.6790037  71.5137863  97.7083397  45.1677132
  72.0215988  97.3016357  45.8698225  71.6687536  98.6470413  45.2728510
  70.5831624   0.3226947  46.2255096  71.3830877   0.8171367  46.4040613
  70.5836988   0.2010059  45.2760792  41.6777039  83.0595207  40.4144239
  41.5579271  82.3517513  41.0476351  41.2020350  82.7680492  39.6365976
  44.5559025  62.8576565  10.1112533  44.6665812  63.5177422   9.4269526
  43.7842035  63.1453991  10.5990243  77.5752116   4.3063163  63.1268692
  78.2712794   3.6531829  63.0551624  77.6387478   4.6262454  64.0267849
  53.6544752  88.2916737   6.0629398  54.2451048  88.9293957   5.6620711
  54.0529585  87.4427032   5.8713853  48.5430622  69.3519688  62.0192862
  47.7813816  69.1447020  61.4778852  48.7864447  70.2406883  61.7601061
  46.2162113  80.6049347  11.5285242  46.9071007  80.1331139  11.9935977
  46.0627317  80.0871181  10.7382441  53.8167572  73.1147289  15.6627667
  53.1334543  73.5825825  15.1827180  54.0736675  72.4009562  15.0790226
 100.1710320  85.4478168  64.8323774 100.5620861  84.5808887  64.7240639
 100.7037544  85.8682346  65.5074167  43.2205391  98.2665634  20.0031400
  43.1333256  97.9925060  20.9161115  43.3707047  99.2107582  20.0498009
  58.0382538  80.5563068  37.5660515  57.7271128  80.2827454  36.7031574
  57.6143694  79.9525547  38.1759953  46.7297602  82.5293064  22.4690294
  46.5216541  83.0132294  21.6698194  45.8800459  82.2419262  22.8031373
  50.3638983  92.3532963  43.5435963  49.6496344  92.9245377  43.2612228
  50.2653885  92.2986507  44.4941473  36.5035462  68.6375952  61.1488438
  36.2163329  69.4919920  61.4709473  37.2519398  68.4124851  61.7015362
  67.7746058  84.3240452  66.3436365  67.2264194  84.6147442  65.6147861
  67.1520710  84.0483665  67.0164537  45.9942293  74.4467020  57.9755497
  45.5398226  74.1726112  57.1789169  45.4416418  74.1267109  58.6886311
  80.2844811   7.6546287  70.6863070  80.1338530   7.8334712  69.7581053
  80.9049893   6.9258117  70.6921816  35.5092669  69.3989754  38.7696767
  34.9090266  69.8100185  39.3917584  34.9414086  69.0571404  38.0790854
  56.4353228  86.7017460  19.8988128  56.4444065  87.4059200  19.2505133
  56.5071201  87.1507263  20.7411265  72.8598118  92.1876812  22.2046566
  72.8209162  91.3865089  22.7269936  72.2368383  92.0401478  21.4930630
  56.3802385  97.7378178  51.6471910  56.6665411  97.5359535  50.7563972
  57.0781612  98.2869148  52.0044422   1.8885776  67.1205187  68.5759830
   2.5135729  67.6755142  69.0424538   2.4132800  66.3879585  68.2530689
  54.4949616  17.0026588  10.0666344  55.3213776  17.3743534  10.3750348
  54.2703439  16.3418006  10.7216489  82.5548983   2.2839927  39.3538189
  82.4978734   3.2348537  39.4478631  82.1680117   2.1044444  38.4968996
  65.3921080  98.8891792  56.8923807  64.5273209  98.5755348  56.6277933
  65.7878780  99.2118931  56.0827780  70.2951431 106.7972565  90.7106781
  70.0878382 107.2672558  91.5183640  70.1526690 105.8756638  90.9265327
  45.3864193  78.0923367  34.9162436  45.3738499  78.9590836  35.3222322
  46.2983274  77.9631805  34.6555185  35.8594847  81.8868446  19.5906878
  35.2200842  82.1158600  20.2651858  35.3951383  81.2765789  19.0178156
  54.6995497  80.7229996  42.2988653  54.1244602  81.2393284  42.8635836
  55.0343370  80.0297451  42.8676748  14.6291471  70.8893585  16.4629662
  14.8100054  70.1489973  17.0420909  15.4884648  71.2742949  16.2908411
  35.2883434  57.1756315  47.0736027  34.6807957  57.3673201  47.7880049
  34.9771214  56.3464546  46.7105055  29.2816663 104.3753338  47.7515888
  28.6536932 104.5999718  47.0649862  30.1135659 104.7333717  47.4417734
  38.6799622  70.6726074  53.2659864  39.4646502  71.0470343  52.8656054
  38.9852142  69.8672867  53.6837339  66.3476562  82.8449345  35.8888268
  66.9655228  83.4612560  35.4956007  66.2835789  83.1206036  36.8032289
 103.7445164  75.5070734  22.3880768 102.9669094  75.8882952  21.9803715
 103.5007000  75.3903818  23.3063173 101.6476775   9.8265361  43.2023811
 101.2446977   9.5820712  44.0354919 102.3330117   9.1722202  43.0666876
   2.2617479 106.6346741  80.9404659   2.1142492 107.5498962  81.1788845
   1.7514130 106.1357594  81.5783405  17.5152253  40.3412931  90.2734627
  16.9724368  39.5753782  90.0864424  16.9276523  41.0869329  90.1509464
  94.0398598  87.7349091  71.7888308  94.5950603  87.3145676  71.1321068
  93.8732338  88.6094856  71.4372826 107.3206855   4.4273567  63.2254076
 107.8522921   3.7138175  63.5782385 107.8132106   5.2203273  63.4371853
  63.3148266   0.5813121  19.3653655  64.0394903   0.9078025  19.8987484
  63.3280826   1.1303996  18.5814285  55.1726055  75.6298542  55.0272703
  54.8796940  75.9857464  54.1883564  56.0749006  75.9368753  55.1157570
  61.2296343  87.4502182  54.7017813  60.6891108  87.3449802  53.9188433
  60.7461262  88.0728531  55.2447128 111.6968727  94.2509651  52.7274513
 111.3318157  93.4722042  52.3073387 111.0109711  94.9131107  52.6417542
   1.9892743   3.9152717  41.0081911   2.7932217   3.8071155  41.5163231
   1.2882235   3.6807537  41.6162682  42.8284311  70.0358868   7.1627927
  42.9527950  70.8451128   7.6586992  43.7158823  69.7178555   6.9968998
  58.6486197  69.7061205  50.3848124  58.1409740  70.2767515  50.9617949
  58.0003881  69.3293428  49.7897720  27.6635077   3.5292243  55.4491901
  28.1629374   4.3458080  55.4507113  27.9374030   3.0794620  56.2485170
  41.8850851  97.6446056  30.3025866  42.4900293  96.9042206  30.2567315
  42.4224186  98.4066868  30.0863814  79.3175984   4.0221404   7.4832195
  78.9486552   3.1869983   7.7707112  78.9781142   4.1412830   6.5962094
  48.7652588  94.7779179  76.6371298  49.3691254  95.3360462  77.1270895
  48.3117485  94.2683506  77.3086214  18.5262752  68.1641197  33.4181643
  18.8889408  68.5243082  32.6088595  19.1061354  67.4345398  33.6365867
 102.6430369  10.6732940  55.9621382 102.1041871  11.2043762  56.5485001
 102.3093797   9.7827720  56.0711002  52.1343184  92.8343296  54.0993023
  52.9150343  93.3777428  53.9924335  52.3084974  92.0576477  53.5676384
  68.5187101 106.1418533  55.8501005  69.4319868 105.8851433  55.7225895
  68.2388353 106.4647007  54.9935532  57.9518724   2.7534675  34.4843197
  57.3328877   2.9285144  33.7754846  58.7895919   2.6156902  34.0421939
  78.8076974  28.9491271  56.4636278  79.6045256  28.7339305  55.9788752
  79.1213132  29.3530940  57.2727537  42.2271585  99.1423798  22.6050758
  42.5802135  99.2276764  23.4906864  42.3377895 100.0110054  22.2184372
  44.6010160  86.1531925  35.8197451  45.3549147  85.9650707  36.3787436
  44.2133808  86.9424248  36.1980081  65.2665330   7.8603267  29.7818327
  65.3582216   6.9655895  30.1093626  66.0761143   8.2966613  30.0472045
 107.5931308  37.3973768  79.8630750 107.6441381  36.7472093  79.1624236
 108.1031129  38.1396024  79.5386637  46.3999891  85.6793880  44.1271496
  45.7484245  85.0636768  44.4626951  47.2355604  85.3453064  44.4534063
   6.5427059  94.6468067  45.0859356   5.6261402  94.4950199  44.8554993
   6.9975793  93.8578320  44.7912550 112.4243645  99.4287205  44.0821314
 112.4355391  98.9481735  43.2543755 112.8653949 100.2551365  43.8852787
  73.5040760  57.9234076  23.3518767  73.1249142  58.3502293  22.5835729
  74.0243673  57.2041082  22.9939151  66.9611025  62.9527044  33.2691169
  67.0048475  62.0106459  33.1052685  66.6911030  63.3292103  32.4315143
  60.9234525  15.7400131  55.7517385  61.6883040  16.0765552  56.2186146
  60.2280451  15.7269287  56.4093590 104.4038964   2.9421996  31.0009217
 104.5061732   3.1851482  31.9211102 104.4087602   1.9850158  31.0039592
  11.0958719  81.0112095  36.2920165  11.9229245  81.1757278  36.7449498
  10.7946002  80.1722336  36.6407180   5.4326152   5.2101152  72.2276962
   4.4815492   5.2813213  72.1462286   5.6934737   4.6437471  71.5014613
  65.3991413  86.2668514  77.7135134  64.5078659  86.5718555  77.8833103
  65.5058432  86.3543034  76.7663097  72.0981169  86.9175148  32.0681357
  72.4369955  87.8050900  32.1847630  72.8252554  86.3484383  32.3204279
  41.3063383  59.9310017  54.9692488  41.5974188  60.3717279  54.1709614
  40.5914545  59.3629026  54.6821260 107.6565410   9.7769069  48.3594275
 107.8020907  10.6919383  48.1190920 107.5478268   9.3240070  47.5231838
  51.2558699 101.4632702  31.9885468  51.7811394 101.9189453  31.3307595
  50.4897404 101.1496162  31.5080214  76.7417909   1.6607570  34.9883628
  77.5182653   1.6328430  34.4293094  76.6657639   2.5792026  35.2470064
  92.1205330  90.6257439  42.7728701  92.6182842  90.5668068  41.9573975
  91.6358376  91.4478111  42.6987410  46.0098743  91.1868382  60.9407187
  46.4171839  90.5154133  61.4880037  46.2832642  90.9679985  60.0498772
  87.4634362   7.7771472  65.8891487  87.8334094   8.6308860  66.1138344
  88.0989600   7.3919773  65.2858353  37.5604630 102.0470810  14.6153259
  36.9407940 101.8945599  13.9018965  37.2423077 101.4964485  15.3307354
  27.0871711  92.6735115  37.7321148  27.7248621  92.7689266  37.0246720
  27.5564408  92.9556370  38.5172391  74.3266750   5.8559131  44.3631697
  74.4444419   5.1732540  43.7026119  73.6713839   5.4987335  44.9625397
  52.7777338  72.6956654  57.0475101  52.9920435  73.6066008  57.2487545
  53.3855438  72.1832180  57.5806189  93.0020524  13.6597824  53.9127684
  92.4275494  12.9232978  54.1219759  92.4045659  14.3811321  53.7155771
  55.3132391  77.1148157  49.8285675  56.2307405  77.3419952  49.9796057
  55.3411150  76.4515352  49.1389894  56.4271355  80.8267498  32.8718257
  56.4042616  80.0280190  33.3988285  55.6079149  80.8107567  32.3769999
  64.1280270  95.1939678  45.0289726  63.6942387  96.0290813  44.8539209
  65.0572777  95.3716469  44.8835230  20.3056407  76.9059038  44.5622492
  20.0113773  76.2405014  45.1842499  20.0735188  77.7381659  44.9741840
  47.0674419  88.5842800  14.2304718  46.6213942  89.4310856  14.2166984
  46.6674232  88.0911827  13.5141814  58.7385130  74.5259333  37.5867009
  58.6964035  75.4796839  37.6561356  57.9852009  74.2917633  37.0445561
  89.2815399  62.5855398  65.8406639  89.7893810  63.3766079  66.0210562
  89.0880871  62.6334047  64.9044418  23.7213612 105.9362221  53.4163237
  23.1476092 105.2310181  53.1167793  23.4218597 106.7086506  52.9368591
  51.2279844  77.0295763  45.6927347  50.3341579  76.8213177  45.4208326
  51.3220072  77.9645872  45.5106735  72.0886494   0.4568195  22.9647303
  71.9577576   1.3964462  23.0920219  73.0270935   0.3659439  22.7995086
  92.1314049  86.0935116  75.5110598  92.0998192  85.7534695  74.6168518
  93.0518818  86.0196400  75.7630205  65.3763485  86.8553257  37.0101786
  65.0818062  87.7629280  36.9344330  65.1164865  86.5920734  37.8930140
  39.7523427  89.0386105  55.7327175  39.5262504  88.1086922  55.7137585
  39.0337276  89.4500828  56.2128401  91.1221981  71.3471317  52.5348997
  90.9973621  70.5314302  52.0498419  91.6222763  71.9056034  51.9396973
  79.7615624   9.0160179  50.9058094  79.9921418   9.9048995  50.6357241
  79.3690301   8.6230468  50.1262379 104.0950251  38.9873027  40.8571482
 103.5057355  39.1989993  41.5811300 104.3539239  39.8378562  40.5025101
  60.7157755  92.7401066  53.9434910  60.0496387  93.4241581  54.0109730
  60.8789206  92.4745464  54.8485279  37.6395631  87.5351810  36.1861992
  37.3263860  87.1972084  35.3471971  37.4348021  86.8429184  36.8147492
 102.0102597   6.2781619  77.5136089 102.4384929   5.7642364  76.8289709
 101.4595652   6.8996715  77.0374823  61.1940670  84.9095535  48.7508726
  61.5366793  84.0956116  49.1201401  61.0952425  84.7257996  47.8166866
  46.4723730  45.7109261  23.7492204  46.5956879  46.3162947  24.4803524
  45.5290937  45.7204485  23.5868573  31.4458942  72.7400987  89.7669417
  31.1703824  73.6565034  89.7441292  30.7855128  72.2785203  89.2501453
 112.0578719   1.4728164  53.6402178 111.3593865   1.3798713  52.9923677
 112.6419307   0.7337093  53.4704256  64.0898991  72.5600290  44.5914173
  64.1407585  72.9914618  45.4443598  64.3871021  71.6654110  44.7574234
  64.1254950  69.6679020  87.6609707  63.6058617  70.1661587  87.0301342
  64.6165895  70.3321600  88.1445217  52.7433777  92.1357155  65.7729006
  53.4137201  92.8187847  65.7900620  52.0679522  92.4776459  65.1871395
  49.7194242  78.0030537  14.5874083  49.9274349  78.6889267  15.2218699
  50.2994442  78.1783390  13.8464081  42.6765776  80.9284019  26.9316840
  42.6949310  80.1054287  27.4201632  43.2853460  81.4989948  27.4007893
  44.1815376  97.1039581  74.2694283  44.9058008  96.4839363  74.3545294
  44.4673824  97.7143192  73.5897350  18.7344098  57.4268389  40.5480909
  18.0649376  57.8016853  41.1203909  19.4059372  58.1063032  40.4879999
  13.3652306  91.2341499  37.0342898  13.7645531  92.0960999  36.9167805
  12.9599011  91.2740421  37.9005146  78.6857462  63.9686012  52.9236937
  79.1563320  64.4904470  52.2737265  78.6456585  63.0912733  52.5430012
  53.1195641  77.4830770  41.0454941  53.0232954  76.5339994  40.9666491
  53.0472994  77.6539516  41.9845438  75.2420044  91.9087124  29.1304374
  74.8194981  92.4335003  28.4504938  76.1694574  91.9117832  28.8936782
  33.6744142  98.0426407  48.2819557  32.9115796  98.4689999  48.6725092
  33.4004474  97.1349144  48.1507778  18.6741018 105.7304764  28.4367537
  18.9456868 105.2097702  29.1926217  17.9488730 105.2367973  28.0539322
  11.7523181 101.6366196  52.5717926  12.2485507 102.3717308  52.2117805
  10.8779645 101.9925213  52.7301311  60.7410669  64.6899843  25.5101252
  59.8648119  64.4382715  25.2184892  60.9492779  64.0681267  26.2073851
  39.6981883  74.5403004  39.3396211  40.1820326  74.7289085  40.1437044
  38.8228106  74.2945623  39.6388865  74.7923183  76.4282990  40.5601454
  74.1469955  76.7871380  41.1692667  74.7865486  77.0353127  39.8200560
  26.5780330  64.9764442  58.9031124  25.7966733  64.8607826  59.4437885
  27.1160364  65.6006384  59.3901062   6.3064336  60.5338781  87.5824103
   5.6578492  60.9643476  88.1394291   6.0035752  59.6281259  87.5181550
 108.9490653   2.4988555  39.6817589 108.5274745   1.9775772  40.3649569
 108.2945968   3.1553745  39.4432497  74.8718119 101.5063095  37.3211265
  74.9190092 101.5630436  36.3667750  74.0236139 101.0982418  37.4951434
  93.5316086  79.2186022  49.7054195  93.3409119  78.4114504  50.1833010
  92.7070522  79.7046041  49.7174978  59.1446353   0.0869464  35.3219128
  58.9097453  -0.2973748  34.4773078  58.9436293   1.0178470  35.2256703
  94.4769288  12.2762393  29.5476437  94.0557528  13.1333541  29.4828320
  94.0685321  11.8657112  30.3098178  92.5780964  62.8538513  29.2147183
  92.8105354  63.2441282  28.3721685  91.6232300  62.7903175  29.1939712
  35.0277090  79.6879673  56.4755487  34.5421982  78.8633728  56.4992476
  34.7554517  80.1490974  57.2689342  32.0938158  63.0921459  19.0003145
  31.7299676  63.4079504  18.1732023  31.4373016  62.4798918  19.3325305
  40.7415915 105.2090168  41.4655685  40.4898167 105.8815765  42.0984221
  39.9452496 104.6947002  41.3330746  31.7828321  84.0812969  53.6094999
  32.5493312  84.5315838  53.2545996  31.4855766  83.5161400  52.8964376
  62.4690771  79.6314526   8.6874568  63.1028843  80.3010845   8.4303254
  62.9660702  79.0327501   9.2449385  66.5356684  90.6716824  18.3247459
  66.3134241  89.8603725  18.7814867  67.4355459  90.5397701  18.0263412
  37.0232797  93.7598515  49.6043777  36.6019797  92.9064560  49.5021582
  36.6833448  94.2832470  48.8786125  51.0773230  92.0125484  31.6036963
  51.4894199  91.5823746  30.8544612  51.7924976  92.1479130  32.2253346
   3.5943654  20.1301956  25.1418734   3.0565169  19.3995857  25.4470992
   3.1157687  20.4829120  24.3916941  85.5122805  33.2072448  27.6365209
  85.3241778  33.3906078  28.5569692  85.6780721  32.2649097  27.6090574
  17.0736220   7.9027271  62.0687819  16.8679907   8.8218307  61.8978834
  17.9257395   7.7668857  61.6544390  90.4488421  18.0801868  72.5257826
  90.8332396  18.7941265  72.0171022  91.0365153  17.3388099  72.3800373
  98.0850507  35.7749175  35.8436561  99.0268947  35.8016872  35.6749797
  98.0094863  35.8587455  36.7941809  46.1715317  78.0083323  23.5856271
  45.3562069  78.3797932  23.9225221  46.2566423  78.3758354  22.7058935
  99.1576625   3.7419414  62.0354605  98.2931710   3.8963222  61.6546059
  99.6170808   4.5753383  61.9324255  93.2119704  42.0697021  18.9197576
  93.0958939  42.7340221  18.2404637  93.4130717  41.2672901  18.4381711
   9.6427824   8.2504939   8.0690169   8.8606169   8.8016223   8.0423582
   9.9486449   8.3123683   8.9739197 112.3061229  30.1051711  10.8559775
 111.8876792  30.8459758  10.4173923 111.5969754  29.6813487  11.3394141
  12.4689867   7.6495456  45.4034472  12.3542788   6.7100715  45.5465412
  11.6632559   8.0429840  45.7384586   7.5239279   2.4329376  24.7590899
   7.9051497   3.2507610  24.4395947   8.2584383   1.9657230  25.1571393
  88.4856225  30.1444625   5.7147676  89.3480826  30.3364086   6.0829365
  87.8829194  30.2448463   6.4515889  70.6421566 104.9838066  32.7656198
  70.6385660 105.8452225  33.1829572  71.4926147 104.6096802  32.9958177
  64.7774769   3.5919761  13.5158479  64.8222733   4.3085384  12.8827953
  64.3479610   2.8799915  13.0416906  33.7737679  92.5207710  30.5256486
  34.4834542  92.4687195  29.8854399  33.9583850  93.3170986  31.0236597
  55.2771593  24.5492267  23.8817334  55.5751837  23.9973068  24.6047854
  54.9348605  25.3359031  24.3062305  58.8810135   8.9540576  60.3020048
  59.6438123   9.3989181  59.9325943  58.1328321   9.3520069  59.8569250
  65.3305961  21.4436244  48.7615156  65.5314637  20.5284500  48.5656929
  65.8330942  21.9422817  48.1172514 101.1471225  47.9593372  26.4354897
 101.9168330  47.4238014  26.6277814 101.3548280  48.3878040  25.6051302
  67.3022175  82.8454590  50.9900713  66.5816069  83.2999706  50.5537605
  68.0814886  83.3475018  50.7514811  35.6309217  20.1526737  34.4141150
  36.4840565  20.5437660  34.6023560  35.6586600  19.2984867  34.8451900
  60.7937384  96.8039608  38.7373924  60.0150013  97.1110439  39.2016125
  60.7406807  97.2220421  37.8779602 101.5667678  41.7942237  28.4986687
 101.9023753  42.3559951  27.8000903 101.4522792  42.3825740  29.2449737
  49.9904966  88.5558510  76.0388136  49.5463419  88.9156532  75.2710247
  50.8500814  88.2873917  75.7143545  84.3460178 101.3650990  75.0181675
  85.0739098 101.9555950  75.2123642  83.6111641 101.9467354  74.8234224
  13.1475690  48.7586386  19.7665226  13.8989595  49.1742021  20.1895344
  12.4729350  49.4375975  19.7558701  14.1298392   7.0136070  77.4176311
  13.6644366   7.6100158  78.0040789  13.4477904   6.6558551  76.8492508
  92.1969367  36.2075614   9.2221802  92.3101617  36.0044574  10.1507080
  91.4002705  35.7405471   8.9702725  92.1923877   6.4336490  55.5286789
  91.3665534   6.6774845  55.1106167  92.3546649   7.1314334  56.1634970
  49.2649174  75.5037403  47.8096104  49.0422630  75.4192638  46.8825102
  49.2015314  76.4422941  47.9866028  25.2038646  97.9829693   9.4231856
  26.0086513  97.4707222   9.3447345  25.1526499  98.4755135   8.6040378
  71.0256529 102.0582008  10.9546947  70.7581425 102.7840805  10.3909755
  70.3760910 102.0489407  11.6577005  11.7401507  10.3207015  26.6479993
  12.1320155  11.0777568  27.0833707  12.4376681   9.6653461  26.6331911
 103.6460400   3.8313388  48.0729485 103.0454589   3.2605361  47.5936508
 103.3387853   4.7173595  47.8811073  29.0891385 103.2216930  70.3089666
  28.1591129 103.0376148  70.4408646  29.4980192 102.3583031  70.2489042
  66.8604279  83.3156967  29.2470694  66.3596773  83.5627270  30.0245357
  66.2698555  83.4939575  28.5151696  34.4314196  26.7810535  52.4350166
  34.2857363  27.6327323  52.0231390  33.5617545  26.3833713  52.4769163
  62.6866341  20.2195167  40.9691000  63.2737757  19.5968246  41.3977528
  62.0430685  19.6716022  40.5198288 108.4801770   5.5783462  71.5763617
 109.0297557   4.8447322  71.3006496 107.5838996   5.2618884  71.4633369
  54.9054193 103.5090923   5.2599740  54.0283966 103.7931347   5.5176204
  55.4413319 103.6484337   6.0407501 106.4609385  35.1946163  50.6646633
 106.5593959  34.5704650  49.9456549 107.3378230  35.5580139  50.7881355
 101.8922520   8.0587291  53.6044931 101.3589145   8.7549209  53.2209492
 102.0852519   8.3653736  54.4904661  85.9960461  26.5978050  48.1581736
  86.6272307  26.4154815  47.4620390  86.0515929  27.5442504  48.2899904
  13.6755660  15.9225177  23.3094549  12.8417780  16.3486289  23.5080934
  14.2892458  16.2883186  23.9464974  54.2754126 106.1828613  32.4648261
  54.8036766 105.7746029  31.7788982  53.7443399 105.4679108  32.8155899
  72.9538585   7.7543258  38.9203620  72.3713446   7.2300052  39.4699073
  72.4842454   7.8441905  38.0911350 110.3580285  30.9478759  14.2193317
 109.9814607  30.5189514  13.4509289 110.2227593  31.8823814  14.0623343
  94.3880607  47.4577426  43.2326937  95.1527882  47.9765224  42.9831171
  94.3321038  47.5555896  44.1832352 106.6302682  18.6168575  55.9626484
 107.3094703  19.1682815  55.5742550 107.1085883  18.0093955  56.5269423
  82.8765059  10.7606506  60.0797462  82.2433616  11.1498355  60.6829882
  82.9640485  11.4040660  59.3764782  98.9680625  24.5044708  61.9968319
  98.5114241  23.6851882  62.1878815  99.6622229  24.5507144  62.6542807
  50.8981705  96.8007660  40.3901100  51.1990738  96.6648483  39.4916558
  50.8993626  97.7514172  40.5018663  20.8203509  12.7154254  40.9124184
  19.9513819  12.8201866  41.2999105  21.4146807  12.6839733  41.6620922
  14.1888284  69.5597188  90.1329738  13.9262199  70.4801671  90.1389247
  14.8941993  69.5160596  89.4873900  92.5271225 104.0513992  65.0827932
  91.7510414 104.4730091  64.7137785  92.1880817 103.2779980  65.5334806
  81.2405015   5.0488471  70.8336258  81.3337136   5.0456714  71.7862749
  80.4473973   4.5388793  70.6688690  82.5091648 102.0336437  16.5693235
  82.3034954 101.1942768  16.9808948  82.3099041 102.6852512  17.2415924
  52.3806047  94.1815472  16.1482465  52.1581554  94.0355206  17.0677173
  52.6618242  93.3234692  15.8306706  87.7884103  49.3270873  10.4964793
  88.5947514  49.1991043   9.9968147  87.7644587  50.2670192  10.6758976
  61.1647558  82.8649902  52.6770735  60.4951048  83.0678368  53.3302546
  61.8979645  83.4386730  52.8996134  87.7571059  27.1532344  41.6187239
  87.6308394  27.6431655  42.4312878  88.2794619  27.7352809  41.0668135
  59.3432999  89.7204494  26.5857315  58.8720036  89.2745686  27.2895050
  60.1225233  90.0800896  27.0096493   0.5716422  24.9260806   0.7973010
   0.7949545  24.0465164   0.4927841   0.3786328  24.8154067   1.7282856
  49.2944145  84.0270329  39.8064232  49.6736288  84.8555660  39.5132351
  50.0087166  83.5861969  40.2664948  50.7928514 105.4767132  33.9306116
  51.4214182 104.9649906  33.4214139  51.3272333 105.9375954  34.5773339
  84.5237590  26.3328075  33.1249285  84.6083737  26.6725253  32.2340512
  83.5863877  26.1709117  33.2315040 107.8702784  22.7860736  31.0163903
 107.5050927  23.6112594  31.3356638 108.1595279  22.9811286  30.1250315
  65.6911755  82.3457623  20.6057286  64.8672152  82.7832699  20.8199930
  65.8428955  81.7487049  21.3383460  55.4668045  95.3598785  32.1740627
  54.5252085  95.4064465  32.3397613  55.6598902  96.1479568  31.6662335
  46.5753984  90.8506489  57.2196102  47.1495056  90.8256626  56.4540958
  45.7176113  91.0889912  56.8680096  93.8823081   4.4097518  55.5540895
  93.3670474   4.0416526  54.8362827  93.3761168   5.1669120  55.8485508
 102.1457768  18.8300800  26.8133831 102.2385598  19.5380973  27.4508286
 101.3061381  18.4234428  27.0275974  75.6339645  95.3330517  33.9157939
  75.8754492  95.6243896  33.0365658  74.6846151  95.4491806  33.9542866
  85.2209283   8.3690071  63.8909340  85.3171588   7.4659061  63.5886526
  85.9206677   8.4821033  64.5342112  21.4490270  96.4885061  89.7691399
  22.0050096  95.9653871  90.3465990  22.0275878  96.7515771  89.0533945
  69.5198631  88.9670944  19.8983288  69.4247580  89.4089508  19.0545559
  68.6892557  89.1258430  20.3467917  77.6132561   2.1419143  38.9156914
  78.0831624   1.3159179  38.8010001  77.0533658   2.2083568  38.1421685
  17.6399043  30.3383922  62.1725464  18.5625269  30.5870246  62.1161747
  17.4958804  29.7778797  61.4100981  15.9259417  26.4037132  26.0841060
  15.7722571  27.3072338  26.3602448  16.5676501  26.4750957  25.3774619
  63.5669422  84.1144466  21.1081934  62.6840496  84.0580463  21.4736438
  63.5070133  84.7988796  20.4417133  42.2749999   6.1250877  45.1074314
  42.2562506   7.0734596  44.9790907  42.0463088   6.0035228  46.0289240
  46.9141245 103.7575340  17.0175338  46.3691473 104.3868160  17.4900210
  46.4242363 103.5701561  16.2168288 104.8188306  62.2828197   9.9901241
 104.7556353  62.0968341   9.0532982 105.6303502  62.7822399  10.0809443
  32.7128363  94.5818233  20.1366806  33.5927272  94.8635578  20.3869748
  32.4083924  94.0595627  20.8788347  89.6752263  17.1642780  41.4482546
  90.3024913  16.5300083  41.7953396  89.9080516  17.9891681  41.8743706
  56.4317751  89.8464966  46.9107199  56.9752836  89.6038055  47.6603413
  56.7086935  89.2535686  46.2121534  64.9710941  97.6807785  25.3669119
  65.7419586  98.1806087  25.6355691  64.4288301  98.3123875  24.8944139
  62.4451638  33.1418228  11.7626691  63.3743668  33.3237647  11.6222858
  62.0098472  33.5127067  10.9950876  50.5374193  95.3570080  85.1911545
  50.3049803  94.4502068  85.3909588  50.1729870  95.8632278  85.9172153
  99.5208455   0.8191585  27.6919103  98.6714555   0.3848171  27.7700806
  99.8411084   0.5649471  26.8264413  71.2504196  96.2970066  32.2183537
  71.2097073  96.7282772  31.3647842  70.3362465  96.1234951  32.4428821
  38.7294482  85.6226747  92.4128263  39.0246009  84.7122114  92.3998217
  39.3043088  86.0697095  91.7915996  79.9931289  29.6913051  27.1940589
  80.7344533  30.1771259  27.5555086  79.3121148  30.3520965  27.0683384
  98.6803151  42.4231910  42.5740337  99.6134282  42.4509525  42.3624706
  98.3399487  41.6907024  42.0603800  58.1248331  83.9794540  22.2663093
  57.5901413  83.3862400  21.7386317  57.6780510  84.0163422  23.1120348
  42.9553080 105.7853603  34.0249276  42.6956940 104.9177837  34.3350148
  43.5772181 106.0982990  34.6818352  44.8800230  95.8457279  23.6821318
  45.1531982  96.7622757  23.6428595  44.3751001  95.7117176  22.8800559
 103.8364840  26.6099739  39.8774314 103.5230780  27.5114440  39.9506426
 103.1605626  26.1619567  39.3688607  29.0523481  94.9884224  37.1420145
  29.7744060  95.1877499  37.7379441  29.3425417  94.2103672  36.6659379
  88.2305051   5.7039451  37.1505427  87.9768468   6.6085719  36.9674182
  88.7706757   5.7615184  37.9386616  53.7123728 103.0828094  27.5121975
  54.0718222 103.9339542  27.7623773  53.4555054 102.6783657  28.3408570
 103.7153245   8.4912967  71.8228292 103.4071065   9.2585277  72.3051071
 102.9323388   7.9542541  71.7014122  90.7323266  27.7705001  23.6435819
  90.6685067  27.1916389  22.8839278  91.4645911  28.3524990  23.4403729
  98.1008721  53.8059329  55.7674026  98.4398414  53.5890865  54.8988914
  97.5648070  53.0511283  56.0106087  92.6197053  26.7756175  29.0413761
  91.9664002  27.4168300  28.7616181  93.4577990  27.1594905  28.7835503
 104.8264790  20.2163791  62.0031881 105.4600144  20.7140159  61.4862490
 104.4763471  20.8509540  62.6284552  18.5205844  35.0121767  20.9043133
  19.1638139  34.3039591  20.9345925  18.5327867  35.3080542  19.9940788
 112.8717995  14.8910713  25.8564591 113.1178332  13.9664077  25.8299518
 113.6899567  15.3612995  25.6960297 105.9067679  12.2652530  47.0714045
 106.7943717  12.4807739  47.3576689 106.0314322  11.6719531  46.3306761
  59.9182703  12.0514297  44.5001268  59.4445422  11.7882156  45.2891254
  59.3201830  11.8454551  43.7817335 107.1463729  14.8143577  51.6578436
 107.6151419  14.7858142  50.8237743 106.5426017  14.0726184  51.6187620
  58.2760286 100.5404663  74.8053837  57.9805517  99.7117329  75.1823854
  58.6081123 100.3046513  73.9391613  86.8243123  25.1037597  33.4465122
  86.0383559  25.6429767  33.3584499  87.0612384  24.8770522  32.5472307
  27.5171473  16.8432426  50.1267242  27.9255393  16.3757419  49.3981028
  27.8653147  16.4171123  50.9099388  43.7835646  70.9807634  56.9117832
  43.8733625  71.8805885  56.5979671  42.8402090  70.8564854  57.0160580
  99.0906573  45.7420635  42.2577667  99.5202113  46.5729713  42.0545053
  99.6489955  45.0784206  41.8527174  52.3495960  74.9357748  51.0843325
  52.2864723  75.5244446  50.3321934  51.6270924  74.3189621  50.9670258
  64.0963697 102.5664806  58.5579872  65.0436211 102.6605988  58.6584282
  63.9450455 102.6575565  57.6172256  91.2273979  99.4616032  52.3764372
  91.1530399  99.0331650  53.2291651  90.5790043  99.0191078  51.8287134
  69.0954305  24.6151637  83.8230801  68.5130692  24.3765735  83.1018543
  69.7422839  23.9101982  83.8518620  54.8853445  78.6152458  14.0970182
  55.7739353  78.2923174  14.2465317  54.9965763  79.3544626  13.4991741
  70.7463598  96.1469269  21.5847588  70.4161930  95.4057407  21.0769606
  71.4564323  95.7793903  22.1110177  86.1992122   2.1844863  34.3774033
  86.7996360   2.8282165  34.7533393  86.4055301   1.3690757  34.8343182
  68.8806749  12.9511547  66.3471317  69.8110343  13.1682872  66.4064264
  68.4489323  13.5904502  66.9138098  90.3743316   7.0192241  81.4384651
  90.2759457   7.1255302  82.3846436  89.5956851   6.5315055  81.1699963
  69.0728712  93.9555550  39.0204716  68.6239624  93.2360935  38.5765314
  68.4073019  94.3357182  39.5938206 107.2260142  24.7841739  58.0909300
 107.2602130  25.4167747  57.3733807 106.4778281  24.2249774  57.8817797
  35.8978558  81.6779518  11.2323558  36.4066029  81.0194874  10.7592452
  36.0257220  82.4841309  10.7324064  21.0714152  12.3976516  52.5664759
  21.6307452  12.7103137  53.2775497  20.9542563  11.4648437  52.7463818
  51.4246035 106.5706730  51.9449854  51.7343426 106.2705803  52.7995205
  50.6937933 107.1549892  52.1467924  81.9782066  63.6953783  62.9607677
  82.0365047  62.7692986  63.1957388  82.8860855  63.9986277  62.9550123
  72.1320629  88.8194752  52.4488926  71.2565327  88.5375595  52.1839237
  72.3238182  88.3020496  53.2310247   4.4984534  19.7849750  52.0176792
   4.6563914  20.2861785  52.8177309   3.9248326  19.0696525  52.2924757
   1.3736870   4.6284961  79.2682409   1.0749581   4.8278999  78.3809757
   2.0050862   3.9181423  79.1544008  59.1654015  93.4842682  14.6845913
  59.9297523  94.0542412  14.6001756  58.4418058  94.0808010  14.8764098
  86.9343043  35.2945327  61.9267702  87.2508765  34.6649169  62.5745296
  86.7003871  34.7602176  61.1678076 109.1436959   9.3669700  26.5121579
 108.2060004   9.1887283  26.5841436 109.2052031  10.0672340  25.8624768
  45.2371788  68.3407831  56.1392450  44.9877930  69.2512798  56.2974882
  46.1941099  68.3542585  56.1210108 101.4729500  89.7760105  34.1328764
 101.8732357  88.9732361  33.7988758 102.0670414  90.4733181  33.8553166
 110.7907821  15.4105091  59.5702600 111.1468030  14.6332073  59.1398191
 110.3445340  15.0713729  60.3462029  93.2470752   3.4546184  66.2396812
  93.4546042   3.5583591  67.1683407  92.3093415   3.2632255  66.2237501
  77.4549723   0.6336021  48.4029007  77.0856667  -0.2268220  48.2040787
  77.5674582   1.0493087  47.5480509  15.4166353  58.6247349  21.9540572
  14.9146068  59.4387627  21.9934797  15.0727940  58.0961657  22.6742125
  42.1631479 100.1043797  62.0497322  42.3499489 100.9149647  61.5761518
  41.4898825  99.6704960  61.5256214  86.8656636  15.9953498  79.9546623
  87.8214360  16.0243225  79.9111176  86.6767360  15.5779075  80.7950687
  83.1665421  21.8221473  39.1815996  83.9026881  21.2105846  39.1637683
  83.5220147  22.6353645  38.8230634 102.6714993  18.5863971  41.0137463
 103.2526828  19.0781879  40.4335737 102.6417447  19.1043567  41.8181515
  95.2892971  78.1587887  63.5402727  94.5047951  78.2036257  64.0868855
  95.5073452  77.2272396  63.5102034  59.5521307  88.6417007  49.6289825
  59.6109772  88.9787102  50.5229616  59.9926949  89.3023396  49.0944910
  57.8445578  92.4100208  48.2481050  58.2513571  92.9045963  47.5366688
  56.9061661  92.5666618  48.1426811  93.3705902   5.1911370  89.7674647
  93.1321526   5.6567971  90.5690556  92.5334263   4.9269311  89.3859142
  74.1342975   8.6857032  43.8288975  74.0663887   7.7422332  43.9754725
  74.2021776   8.7761402  42.8783989  81.2123156  22.5304698  59.7788477
  80.6246711  21.8295669  59.4966555  81.5008641  22.9433536  58.9649010
  85.4163028   2.8207397  61.3301086  85.0966693   2.9670238  60.4397869
  86.1291934   2.1901798  61.2280750  65.3640175 100.4335308  84.9805927
  65.8235455 100.5526829  85.8117771  65.1277399  99.5060349  84.9683571
  44.2223454  90.6109428  24.3367386  44.9691582  90.0224113  24.4468737
  44.4191933  91.3564301  24.9039578 107.8454448   2.5031089  50.8587360
 107.3637772   1.8050861  51.3025761 107.2578717   2.7933978  50.1610851
  81.6143799 106.8680286  43.7949371  80.7073689 106.7001152  44.0506172
  82.1362877 106.3603115  44.4162798  93.8596297   7.6409530  15.6346726
  94.4279910   6.9099807  15.8773088  93.9614583   8.2706546  16.3483500
  45.6604528  70.4414558  28.7704849  45.5060148  69.5151567  28.5851336
  45.7117367  70.8530283  27.9078102  71.7809248 100.3213692  45.0160980
  72.1416950 101.2052631  44.9466562  71.4966679 100.1081848  44.1272926
  95.2808810  38.3205318  57.7124643  94.5321370  38.5921668  58.2433367
  95.3851939  39.0215206  57.0690584  37.2403359 100.1695347  67.8209352
  36.7624021 100.2930069  67.0008326  38.1623840 100.2399540  67.5737429
  16.8830061  91.0471630  23.2278442  16.3717389  90.4038239  23.7187195
  16.3193858  91.8197155  23.1862593 106.6776276  29.0885639  30.1230979
 106.8457652  28.6925983  30.9781861 107.4645091  28.8985443  29.6122670
 108.8699389  26.3291644  54.8496675 108.4363175  25.8928108  54.1163206
 109.4219876  25.6511688  55.2392864  89.4775916  30.4264545  23.8725805
  89.2595769  30.8625125  23.0488396  90.1001073  29.7430133  23.6243510
  58.7685204  91.5528584  50.6508589  59.7110987  91.4125538  50.7408285
  58.6631346  91.9146538  49.7709560  58.0826950  93.1435108  52.7367210
  58.3697367  92.4808502  52.1084595  57.4078226  92.7054977  53.2552958
  28.6825564  46.6180992  38.2247806  28.9493468  45.7265472  38.0007315
  28.0693915  46.8656730  37.5327110  71.8442535 105.2818871  70.4770422
  72.4293041 105.8443165  70.9846067  71.1512947 105.8685780  70.1739979
  57.5228739  77.2325468  54.4182348  57.7575016  77.0843267  53.5021496
  58.2355976  76.8317842  54.9158764  38.2354951  78.2439327  25.0933433
  38.3304739  77.6173830  24.3759584  38.8880038  78.9196157  24.9091840
  45.6936169  92.6149845  37.1469784  45.4826307  92.9346943  36.2697673
  46.3985586  91.9824886  37.0082569  90.7743932  21.2187957  28.8635659
  90.7070018  22.0177745  28.3407640  91.4008714  21.4363384  29.5538044
  95.3711272   3.9721298  30.9531975  94.8501492   3.2024097  30.7244015
  94.9921370   4.6809863  30.4334617 110.7555772  14.7501087  34.1566181
 111.4223100  15.3771686  33.8764548 109.9689246  15.2794742  34.2876840
  57.1726228  20.4601955  60.7641697  57.6790906  21.2657356  60.6601429
  56.4543260  20.5462551  60.1373720  85.6003905   6.3120746  83.0641174
  85.2540875   7.1458721  83.3820629  85.6448270   5.7583331  83.8436222
  20.9069919  32.4346178  88.2066179  19.9735450  32.2964494  88.3672843
  21.2171601  32.9010408  88.9828143  52.7243328  83.7588215   6.5939009
  51.9128895  83.4374619   6.9869906  52.7182722  83.4014034   5.7059568
 102.5376987  84.5558643  30.6121349 101.7264938  84.7847557  31.0657692
 102.4025917  83.6544037  30.3199983   1.7994978  12.5501251  60.7972908
   1.2405684  11.7810821  60.6859541   1.4844706  12.9606151  61.6025782
  49.8023594  22.7517700  56.4078426  49.8815144  22.6711082  57.3583460
  50.6958235  22.9159355  56.1061716 110.1031018  54.3974590  58.2358122
 110.6969453  54.9667644  57.7464581 110.2403451  53.5281085  57.8594685
 100.0005151  14.6724510  70.4209232 100.3283740  15.3689956  69.8520994
 100.5843545  13.9324474  70.2543211  79.3091870   2.3442935  50.8698988
  79.6291829   3.0716419  50.3362370  79.5980597   1.5598678  50.4035807
 113.0924416  11.0873031  62.7348757 112.3219062  10.6397151  63.0844116
 113.3504010  11.6960048  63.4270906  74.8425150  92.5057602  64.8856926
  75.0871801  93.4297085  64.8338413  75.0964069  92.1427727  64.0371609
  11.4416506  34.7348499  40.1138020  12.0212557  34.5357990  40.8490992
  10.6108286  34.3191528  40.3443813  75.5982614  13.4492969  41.8703842
  76.5390778  13.3202552  41.9905663  75.1921368  12.8247833  42.4714422
  81.0591079  16.0321903  19.8216689  81.5946198  15.3112602  20.1529121
  81.1080457  16.7005729  20.5051160  75.8928967  78.7467909  36.1456943
  75.1395893  78.4174538  35.6554937  76.4089203  77.9656696  36.3451838
  28.1342745  93.3458328  43.7747145  28.2240033  94.2560005  43.4922504
  28.7682104  93.2521152  44.4857550   1.0398915  32.9167556  30.0164175
   1.8020871  32.6747035  30.5424380   1.2738802  32.6614570  29.1240573
 103.3819342   2.0199584  58.6627722 104.1361190   1.9944953  58.0738831
 103.7559272   2.2117519  59.5227575  99.3741752  21.9774055  49.0325689
  99.6332599  22.2246360  49.9202490  98.7920094  21.2272262  49.1531467
  77.1746731  98.8423347  17.2317851  77.7358341  99.4174767  17.7519262
  76.4655638  99.4094944  16.9289231  23.5350039   1.8711662  33.9190936
  23.1704237   2.3718929  34.6488762  22.7701762   1.5125751  33.4688950
  78.2952452  76.0184956  28.3940792  78.5033274  76.5010595  29.1941214
  77.4918079  76.4260626  28.0706501 102.7568436   2.3086738  26.5260458
 102.7526570   2.0110988  25.6162858 101.9059134   2.7309036  26.6438580
  16.1378100   2.0382976  38.0945015  16.7872336   2.5020790  37.5659323
  16.4668086   2.1049117  38.9909124  23.5763934  22.5648116  32.8695488
  23.7586214  22.8530406  31.9751501  22.6543906  22.7816295  33.0078959
  61.6406584 103.7373543  31.5039587  61.5725851 104.0949535  30.6186771
  61.4707518 104.4844246  32.0777607  80.1063728  90.1843548  60.5916309
  80.6589890  89.8689461  59.8765326  80.0530148  91.1300850  60.4538727
  46.2761545  99.7256565  57.0801544  46.4154959  98.9105511  56.5980721
  46.4078569  99.4867897  57.9976654  68.7800598  95.2929974  80.6435776
  68.2328892  94.5487785  80.8945560  68.5642004  95.9744453  81.2801838
  43.1084635   6.4684104  54.6768808  42.8120902   6.5223503  53.7683201
  43.7470057   5.7553291  54.6785879  43.1223154 102.9697323   2.0410520
  44.0677023 102.9697704   1.8911438  43.0024433 103.5206413   2.8145880
  12.1998217  32.1622943  53.3316326  12.8611186  32.5869941  53.8780308
  11.5911391  31.7671966  53.9558363  58.0591631  84.6666622  35.8564782
  58.5324192  84.3745327  36.6355276  58.1926394  85.6142998  35.8364606
  92.8039646  90.3952503   9.1086477  92.0762730  90.9051514   8.7527013
  93.5693932  90.9586620   8.9950073  10.3337481   8.6282443  46.6365099
  10.0507739   7.8861331  47.1707678  10.5414298   9.3145084  47.2706509
  89.4929600 103.1101799   1.6340968  89.3492603 102.6393223   0.8131931
  89.2638588 102.4784946   2.3157987  25.5059241  72.0689599  89.2490739
  25.8142232  71.3998430  89.8602006  25.8902167  72.8838651  89.5722908
  89.0239716  94.9519253  32.4597836  89.0410233  94.1959572  33.0466866
  88.1343746  95.2963448  32.5386286  61.5520763 103.6186981  62.3233938
  61.2079906 102.7781677  62.0211554  62.2986603 103.7920189  61.7499781
  86.8024254  69.3851423  25.2884245  87.5220394  69.9076796  24.9343920
  86.2153816  70.0263023  25.6890917   4.9290945  12.5588798  64.2537546
   5.7107737  12.0169544  64.1463709   4.2467120  12.0935058  63.7700033
  35.4860785  14.2305469   1.8914208  35.5372813  14.3303203   2.8420290
  35.6254485  13.2955932   1.7408702   6.8020728  47.0043182  60.3953934
   7.2076800  47.0801067  59.5316982   6.9012358  46.0807037  60.6263590
 106.9684983  16.5686130  40.4207659 106.1449242  16.6130924  40.9065437
 106.8972064  15.7678127  39.9012780 104.7165919  36.1963176  22.9644966
 104.4268752  36.7542552  22.2426963 103.9537812  35.6561088  23.1707239
  42.7989867   0.4396247  44.9212837  42.9599192   0.7054042  45.8266544
  42.5642493   1.2513160  44.4715166 105.1044036  26.6403007  42.4082422
 105.4057504  27.5418949  42.5202465 104.4687653  26.6871929  41.6941023
  55.9992743  98.5085964  46.8450832  55.0824404  98.2340908  46.8278742
  56.2564087  98.5427189  45.9236956  62.4466705  71.9090033  54.4487476
  61.4946461  71.8886662  54.5460653  62.7731943  72.1020985  55.3275681
  93.3542728 105.7146454  38.1297135  93.4169483 105.7337666  37.1747589
  92.4152756 105.6593513  38.3070564  97.0027352   1.1948394  32.9273415
  96.9762612   0.3733348  33.4179139  96.6094256   1.8384933  33.5166264
   3.1315567  11.3254260  43.4499502   2.6467135  10.6860256  42.9281139
   2.6464131  11.3798999  44.2732954  33.7522340  93.6098480   0.5513063
  33.3028150  93.1962013  -0.1856785  33.5213900  94.5362949   0.4831661
  80.7970095  27.4916839  53.0702543  81.3694859  27.3361301  52.3190546
  79.9350024  27.1931362  52.7803373 100.2727891   4.3682479  34.9284816
 100.5702067   3.7729263  34.2404628 100.7470990   5.1828193  34.7619152
  86.6811944   5.8126258  33.5618329  86.2470294   5.8043479  32.7087998
  86.6276170   6.7241573  33.8490152  26.6438391   2.9282951  15.5905080
  27.5448134   2.7259159  15.8425522  26.1068728   2.5042819  16.2599170
  86.1280633  13.1771182  30.8828282  86.6311503  13.1316375  31.6958857
  86.5958644  13.8178443  30.3472328 103.4271909   3.8237094  41.0705566
 103.6872149   4.6728706  40.7134151 102.6907159   3.5494136  40.5241108
   8.7038233   8.2869911  60.6520128   8.6598303   8.9179801  59.9335814
   9.2007163   7.5511455  60.2944183  34.8451807  15.3323745  49.3234539
  35.1566985  14.6567439  49.9257088  35.5520155  15.4286765  48.6852169
 108.3014870  52.6985931  22.6949644 108.8932849  52.4355029  21.9901323
 108.1715012  51.9014358  23.2086515  69.5044518  99.9298668  16.2391174
  69.4558382  99.2162895  15.6029725  70.2267551  99.6859455  16.8179214
  48.4373093 104.2655182  37.7119470  49.2345715 104.7857094  37.6119232
  47.8656483 104.8058128  38.2573938  27.4518301  16.8118572  26.3601208
  27.9354956  17.3935699  25.7736826  27.2467997  17.3552608  27.1209812
  72.4127102  88.5434437  56.1730003  73.3569145  88.6150074  56.3129663
  72.2727871  87.6233196  55.9493542 112.7376176   5.9320068  36.3105273
 111.8878938   6.3591098  36.4190674 113.3562423   6.6540431  36.2000895
  70.6242180 104.6224403  46.6356277  70.1891804 104.8410225  47.4597597
  71.1693144 105.3852940  46.4428568  71.0617924 105.6430912  55.0161839
  71.2199211 104.9465942  54.3789101  71.2251425 106.4524364  54.5319128
  58.5659504  97.6443005  45.1085806  59.4149399  97.3209953  44.8070431
  58.1754589  96.9003296  45.5671167  69.8786068 106.8210506  62.7195740
  69.7258377 107.0361519  61.7994547  70.6300592 106.2282944  62.7053976
  30.7846072  20.9511566  18.1712067  29.8504927  20.9618854  18.3798778
  30.8305075  20.5617332  17.2980106  11.3935950   3.4702300   0.6532390
  10.7894232   2.9096698   0.1664374  12.2397425   3.3387088   0.2254769
 110.1804877  14.9760913  52.8995323 110.0825597  14.1891384  53.4355736
 110.2001668  14.6516990  51.9991922  27.7066611  48.3443658  82.5439453
  27.0539617  47.6713579  82.3508764  27.4622726  49.0822713  81.9853747
  45.6444550 102.6125145  85.9777546  45.9149408 102.5964260  85.0597095
  45.0945187 103.3924675  86.0517883 111.9999314  33.9955520  18.7946606
 111.1144830  34.3188381  18.9610898 112.5004674  34.2599582  19.5665300
  95.2969790  11.9480609  43.5775089  95.0314380  11.5193653  42.7639055
  96.1784268  11.6154766  43.7468481  21.5703490  23.2634925  37.6598215
  22.0922282  22.4864864  37.4594831  22.0399001  23.9828109  37.2375250
  20.3202441  26.9468116  46.7441320  20.0809576  26.6542529  47.6235533
  20.9769728  27.6280116  46.8887472  17.4849891  62.6174657  70.3480542
  18.0186843  63.2440774  69.8594129  16.7160939  62.4758260  69.7958148
  14.3050005  43.0254554  28.1705260  14.4758513  43.8491153  28.6272907
  15.0804427  42.8879928  27.6264334 106.1326314  24.4918823  20.8582616
 106.1829472  23.7415695  20.2660370 106.0007096  25.2440833  20.2811766
  90.0190068  32.7771758  56.1521482  90.4714204  32.9374599  56.9803143
  89.8290349  33.6507320  55.8100319 109.8952897   8.4086621  53.1869030
 109.8135422   8.4587789  52.2345161 110.2637754   7.5404757  53.3503103
  53.0866107  79.4243472  91.4042878  53.2838401  78.9603036  92.2179190
  52.9274604  78.7299078  90.7650267  34.6065318  42.3095100  90.5767458
  35.2688548  42.9566067  90.3342057  35.1078489  41.5236371  90.7942708
  63.1340013  98.0542881  66.4311934  62.9078910  97.5403452  65.6559706
  62.2927556  98.3632613  66.7674589  13.4250855  28.9249468  42.7820826
  14.2947793  29.2831659  42.6044798  12.8476965  29.6883893  42.7854061
 101.7528115  14.2520905   4.8685288 101.7568825  14.4584227   3.9338404
 101.4381920  13.3491743   4.9131212  18.7326348  50.0379753  22.9461861
  18.5699141  49.2692327  23.4927988  19.5585430  49.8456812  22.5021911
 103.1142960  12.3630381  11.8575895 102.5563823  13.0104887  11.4265776
 103.8543944  12.2496927  11.2612355 100.0405036  32.0803261  62.8150511
 100.9337161  32.1832418  63.1433964 100.0780593  31.3024974  62.2584534
  79.9484432  88.8492656  26.5067005  79.3995032  88.9796949  25.7334709
  80.2388123  89.7295333  26.7455411  97.7755282  91.0426820  41.8238974
  98.4207914  90.5503762  42.3313427  97.3500845  91.6118110  42.4652386
  35.6592083  11.9164562  50.7821941  34.8581791  12.0770895  50.2834082
  35.8745432  11.0014927  50.6013441   8.8532352  15.0533688  31.1169171
   9.5202893  15.0126195  30.4316378   8.5147101  15.9474134  31.0687852
  63.9878926  80.1019979   2.8058740  64.2131004  79.3312646   2.2848332
  63.0872474  79.9446917   3.0892879  24.6366692  16.1574686  30.2032781
  23.9075446  15.6666899  29.8241401  24.2857075  17.0366919  30.3447866
  11.2628460  12.9987741   7.8395069  10.3498089  12.8187919   8.0635673
  11.6860616  12.1402979   7.8512919  87.9483317   6.3366359   6.1559558
  88.2713221   6.7522037   6.9554627  88.5004567   6.6939187   5.4604423
  16.8264163  20.9431744  30.9919930  17.7218175  21.0251331  30.6637096
  16.5984643  20.0260782  30.8396554  29.7489619   6.7984915  29.3991995
  30.0330091   6.3283420  28.6152935  28.8038206   6.9010013  29.2877102
   5.2801179  97.7129728  47.5718403   6.0681676  97.2026355  47.3853874
   5.0881242  97.5297320  48.4915066  28.9047144  85.8557654  30.8362150
  27.9789445  85.7930828  31.0712647  29.3229005  86.2352133  31.6091108
  40.9495471 106.0678106  17.7489984  41.5354655 105.5792633  17.1708524
  40.8570311 105.5111497  18.5221744  82.5379685  83.9268375  39.6132755
  83.1792680  83.9483047  40.3235626  82.6776753  83.0797697  39.1899657
  23.6889005  32.5915217  28.9066529  23.0350971  32.6497674  29.6033454
  23.2210708  32.1950150  28.1717038 106.3970582  25.9460855  38.8109660
 106.1565356  25.1560616  38.3269787 105.7065783  26.0449100  39.4664836
 110.2718718  16.5433621   9.4300848 110.7052158  15.8175373   9.8791081
 109.3376552  16.3862741   9.5671761  16.2963176  38.4616256  15.9567213
  16.5732408  38.9410877  15.1759136  16.9472861  38.6887813  16.6207027
  15.4231822  19.0965950  10.0955617  15.1610136  19.9597454  10.4156756
  15.4392731  19.1891527   9.1429836  50.2876616  35.0326228  14.7626877
  50.1508045  34.8171234  15.6852186  49.6167374  34.5326138  14.2978430
  98.7293206   3.0218893  36.5746379  99.0912281   2.1541512  36.3949585
  99.2607604   3.6171964  36.0460424  11.3178039   2.6095027  33.0105782
  10.4775655   3.0337316  33.1845355  11.3147557   1.8333426  33.5707545
 108.2756536  63.1395960  18.2734394 109.0104516  62.8431082  17.7364123
 107.5013052  62.7847862  17.8367162  72.9011461  72.6178008  82.3801852
  72.1563813  72.7871578  81.8032313  73.5697433  73.2418101  82.0976568
  10.0806379  10.4184926  24.5633698   9.3118095  10.8862698  24.8894334
  10.6593120  10.3501356  25.3227735  11.2032354   3.5197696  28.8022256
  11.5353751   3.1242263  29.6081161  11.1470807   4.4546813  28.9997554
  34.8788881  41.0352516  45.1405287  34.9885631  41.1462212  46.0849285
  34.8581386  41.9277906  44.7953081  98.7636290   5.6000352  45.7230854
  99.6169291   5.6706131  46.1510181  98.2205449   5.1212388  46.3492203
  14.7501326  32.4751091  59.6304274  14.7919285  31.6247964  59.1928720
  15.6654263  32.7305079  59.7454929 108.5990877   6.8959016  30.8686757
 108.5409315   5.9623665  31.0720515 108.8160138   6.9249636  29.9368334
  48.3068609   1.6166157  49.4544601  47.4401712   1.2280756  49.3356323
  48.5015965   1.4883697  50.3828239 103.2738755  99.1544408  16.4543378
 103.7796900  99.8265547  16.9111180 102.5244973  98.9885760  17.0263088
   5.7894683  60.3846550  57.1704769   6.0235637  60.0203753  58.0241346
   5.7865989  59.6305752  56.5809155 111.1926126  21.2980652  43.8716555
 110.5034707  21.8902898  44.1726255 111.3224520  21.5294266  42.9519558
  84.0081844 106.4086011  56.8450356  84.4643829 106.8065471  56.1035824
  84.5352516 106.6483866  57.6072264 101.8539569 102.4075431  33.5246015
 101.2196944 102.8669137  32.9742193 102.2122548 101.7243076  32.9579926
  32.6087427  18.5681307  48.2999182  31.9734573  17.8843319  48.5121965
  33.2455611  18.5333538  49.0137005   3.0410320  46.3721418  53.2157946
   3.4500855  45.5089903  53.2780838   2.2005829  46.2717104  53.6627769
  36.4763056  90.5492371  81.3160611  35.5285594  90.6694191  81.3757706
  36.8420942  91.3906639  81.5888775  96.3393924 102.8857616  27.4862814
  95.6650064 102.8202999  26.8101501  97.0352099 102.2999925  27.1880484
  66.0026285  81.3757866  80.2379763  65.5490729  81.5575164  81.0610771
  66.9272634  81.3247626  80.4802120  11.2557638   5.1477259  23.9910221
  11.1745286   6.0956573  24.0961814  10.3615558   4.8472449  23.8287377
   6.7223942  15.3379858  16.5402842   7.0642048  15.8107913  15.7814348
   5.8140939  15.1415360  16.3108730  22.7290606  38.0636597  54.5862913
  23.3653402  37.7122974  55.2091265  23.1594777  38.8324380  54.2121840
   3.5117053  88.7676311  31.9201517   2.6107978  89.0771854  31.8264842
   3.5619115  88.4454513  32.8201032  21.5716434  17.8973532  40.6562376
  21.7192459  18.7299669  41.1047888  22.0851207  17.9646575  39.8512268
  13.9123774  21.0913301  30.1557398  12.9925323  21.2451386  30.3712845
  14.3604589  21.8899441  30.4344344  53.4247920  31.7133015  77.4435306
  53.3481106  30.7772225  77.2588492  53.9055857  31.7557495  78.2701314
   7.3246771  17.1554959  37.6089716   8.2243168  17.1530199  37.9358864
   6.7954856  17.4070561  38.3658767   6.0661268  48.7671995  14.9740970
   6.1598921  49.5176983  15.5607748   6.9556856  48.4278727  14.8752201
  16.3016999  26.4192486  44.4818163  15.3832972  26.3812757  44.2147446
  16.7471290  26.8431401  43.7482357  34.9699998   6.1858511  33.0168176
  34.6389675   5.3645372  33.3802629  35.6616831   6.4539027  33.6217570
  23.0850339  13.9544296  18.9083123  23.4419179  13.5436773  18.1208169
  23.8434529  14.3527079  19.3354058  29.4762516  12.4754488  26.3726616
  30.0456882  12.7063584  27.1065950  28.6325979  12.8719234  26.5901160
  30.3320074  41.5488863  26.8810439  31.0352278  41.9520760  26.3719726
  30.7521200  41.2783575  27.6974702  14.7071159  25.7812738  60.3206253
  14.9704301  25.2337885  61.0603237  15.3776944  25.6243658  59.6558428
  23.3231688  10.2099752  21.5667176  24.0903831  10.5521083  21.1078501
  22.6573682  10.1187134  20.8850932  37.7290225  30.9630537  22.2414446
  37.0181775  30.3256798  22.3098993  38.2599926  30.8146119  23.0239224
  13.8339949  24.0579557   4.6588194  13.5163558  24.5405388   3.8956356
  14.6363080  23.6325216   4.3562797   9.0734464  56.5648937  25.6333375
   8.9377922  57.4045467  26.0724425   8.1958681  56.1906338  25.5557728
 109.7902088  71.3255548  50.4555416 109.9177049  72.2210693  50.1424408
 110.4428802  70.8107090  49.9810028  19.3862534  22.3678184  46.9548750
  19.1553116  21.6476130  46.3681889  19.1981828  23.1584382  46.4491272
  41.4210653  27.0780182   0.8643532  40.8986664  27.7301359   1.3313359
  42.0605612  26.7766261   1.5096754  15.9673309 100.0635648  43.5549784
  16.4337253 100.5633867  44.2249680  15.1479100  99.8044950  43.9764786
  45.9013939  12.5967574  41.7618990  46.5722847  12.3508430  42.3988152
  46.2724209  12.3483610  40.9152174  29.1637969   0.8748011  27.5823188
  29.6484828   1.3500482  28.2571888  28.7833738   0.1267183  28.0426288
  33.1271958  27.4932623  24.6758533  32.5592136  28.1489754  25.0804114
  32.9183269  27.5383663  23.7428093  31.9056463  39.2316628  32.9251599
  32.1476483  39.6477222  32.0977783  31.6114902  39.9543452  33.4796262
  41.1582899  20.1681256  35.5650592  41.3796997  20.8233714  34.9033475
  40.9280634  19.3873930  35.0613880  16.6219997  39.3349791  39.9748659
  17.3513949  39.9084044  39.7394991  16.6230583  39.3267012  40.9320307
  16.1765242  16.2552297  57.1543550  16.0460031  17.0075846  57.7315521
  15.5814099  16.4100385  56.4207983  47.3485231  29.0698886  24.7023106
  48.1975031  28.8248920  25.0703287  47.5117922  29.1613460  23.7635827
   1.4103486  40.6697178  23.1567073   1.7607206  39.8566365  23.5205317
   1.9489057  41.3582659  23.5466981  27.8339052  27.4973702  74.4285536
  28.2319069  28.0256820  75.1204443  26.9377708  27.8269386  74.3610382
 106.2383799  14.0962541   6.2126517 106.2991784  13.4250808   6.8924028
 105.3417103  14.4244707   6.2796545  12.4506569  32.6540565  33.6994171
  13.1983697  32.6444793  34.2969656  12.6002765  33.4167790  33.1407547
 102.7162169   8.6108345   6.0121703 103.0351602   9.0817177   5.2422512
 103.4140073   7.9890090   6.2186980  22.6092458   4.4901276  72.1823025
  22.5724030   3.8960770  72.9319525  23.5333180   4.7295564  72.1116257
  38.4324694  13.7932432  64.2676258  38.9415765  14.2948174  63.6308622
  39.0240765  13.6801028  65.0115538  85.0120560 106.5981866   5.7215410
  84.3758301 105.8830302   5.7219064  84.4798735 107.3921809   5.6706768
  12.6219916  36.6948438  44.2485332  11.7344368  36.8269300  44.5817471
  12.7865088  37.4588561  43.6958599 112.7508395  21.9596338  24.3461657
 112.2022534  22.7246165  24.1727066 113.3986557  22.2681570  24.9797106
 108.4289946  31.6422462  67.9030418 108.7015726  32.1031451  67.1096277
 107.4752729  31.7233372  67.9114532  18.7904131  37.8092217  37.0787430
  19.3574572  38.2455969  36.4429212  18.9252210  36.8752050  36.9185114
  20.1361108  38.9561558  39.1297603  19.5929980  39.6986151  39.3943620
  19.7172797  38.6239719  38.3357382  39.8068380  25.2711511  -0.3495120
  39.1367698  25.1074958   0.3141574  40.4426479  25.8382392   0.0868224
  27.1772027  16.1009037  40.4484463  26.9595051  16.0571074  39.5173597
  26.9042492  15.2528059  40.7983875  35.1431751  45.5691910  16.6713297
  35.1447964  45.3678751  15.7355404  34.6520519  46.3879728  16.7393279
  20.4593992  39.5645690  63.7966776  19.5536566  39.6655035  64.0893793
  20.4793644  39.9768305  62.9330349 101.0066031  51.5691233  14.8870683
 100.4405163  51.5519714  14.1153920 101.3328932  52.4682045  14.9248183
  99.1806481  99.3887050  34.2598891  98.3662651  98.8951547  34.3569469
  99.8696683  98.7261552  34.3099999  26.1419749  54.0094948  45.1701641
  25.7373047  53.2757664  44.7074318  26.8226194  53.6065817  45.7092524
 107.2562811 102.4185289  77.6845789 106.4363549 102.5809607  78.1510258
 107.9301379 102.8074390  78.2421589  15.0758755  40.6575823  42.0768356
  14.3048871  40.1247501  42.2715092  14.8083067  41.2054062  41.3389111
   6.5182239  17.5574028  18.1656897   6.6322029  16.7874467  17.6085472
   5.6619465  17.4323583  18.5748172  25.1252198  64.4918108  45.6584215
  24.7523642  64.8321152  46.4716911  24.3679142  64.1967964  45.1527691
   6.3559204  35.3024864  56.8603182   7.1307772  35.8136249  56.6267300
   6.6739339  34.4020796  56.9264317  44.5700645  40.3593111   8.4533280
  44.8406410  41.1707354   8.8829935  43.7899351  40.0824261   8.9339179
  81.1610743 101.0890978  86.2529070  80.7955834 101.9736260  86.2367452
  80.4265544 100.5221050  86.0178936   3.9877006  67.5497723  13.9375842
   4.0618053  66.8164444  14.5482993   4.7439107  68.1026506  14.1343081
  32.4291563  56.3443851  19.3414390  31.7762399  57.0284605  19.1932094
  32.8181505  56.5639687  20.1880193  12.8866673  64.8881674   7.5118864
  12.9053330  64.0064526   7.8839898  13.3096957  64.7968245   6.6581088
  75.6946941  96.1206401  26.5859675  76.6062771  95.9122134  26.3815022
  75.2226135  95.9567822  25.7695603  58.5526786  18.3368747  89.6843300
  58.4263394  17.4054353  89.8651249  57.9199324  18.5348241  88.9939088
  13.9449012  27.3997760  19.4036150  13.7383509  28.2819390  19.0948105
  13.1526124  27.1134710  19.8580801  21.6640687   7.5521988  18.3682096
  21.5445232   6.6772127  18.7374544  20.9206390   7.6659077  17.7760816
   1.9836088  29.2537713  29.7441554   1.2354332  29.5572448  30.2583265
   1.6529369  29.2025304  28.8473487   4.2246422  68.5888100   6.6712552
   4.6741450  67.8774834   6.2149751   4.9174446  69.0387249   7.1548182
  45.4058489  65.8980017  90.5550625  44.8918918  65.3462141  89.9654788
  46.1528250  66.1811727  90.0277356  15.1171517   1.7871217   7.9065055
  14.3800735   2.3387784   8.1684649  15.0097156   0.9851471   8.4179014
  21.4171076  44.5601845  17.6721251  22.1736026  44.3368864  18.2144237
  21.1362934  43.7253666  17.2973561  11.5298390  36.8611026   1.3765059
  11.5205824  37.0248699   0.4334649  12.2368145  37.4143052   1.7087436
  55.5670977   5.5526406  37.7877998  56.4696026   5.6174523  37.4755192
  55.4790020   4.6450704  38.0789828  16.2147617  23.9454746  21.1529517
  16.4013159  24.6298528  20.5102563  16.5102696  23.1369185  20.7344532
  25.3073359  32.8479147  21.9169736  25.5338645  32.9163027  22.8444648
  25.0427914  31.9352484  21.8016982  12.1734023  60.3757858  16.0880899
  12.0623422  59.7191572  15.4005313  11.3302624  60.8273077  16.1265147
  31.2052059  21.8636131   7.8300124  32.0451164  21.5426946   8.1583267
  30.5506563  21.3908482   8.3441049  28.0017090  48.8288593  10.9662294
  28.7859583  48.3711004  10.6635094  28.2706976  49.7448921  11.0352504
  37.8264380  20.9865403  52.8724003  37.8439307  21.9158030  53.1013060
  36.9548345  20.6913424  53.1358385   5.3504228  88.8982702  58.1270695
   5.9902381  88.9942480  57.4216223   5.1213025  87.9689420  58.1178141
  25.0098395  36.0937285  34.8094177  24.3620729  36.7830467  34.6628833
  25.8303285  36.5637660  34.9580574  59.1361523  28.0896616  43.8147736
  59.2756605  28.6549163  43.0550003  59.9461651  28.1626296  44.3195391
  10.6462014   0.2996073  26.4568233  11.1394477   0.9963211  26.0237765
  10.8602715   0.3957879  27.3848081  11.9438660  53.8503027  14.7029245
  11.3409221  53.5047579  14.0446770  11.9094217  53.2137203  15.4169333
  17.2965133  35.3004503  27.4578166  17.7578413  34.6219444  26.9648290
  17.1564496  36.0037637  26.8238091  26.3025784  26.9961309  59.0420389
  25.7501340  27.0575857  59.8213053  26.2606645  26.0734177  58.7908888
  53.4000587  12.1131253  66.2272453  53.3198643  11.2651825  65.7904482
  53.7169743  11.9012380  67.1052551  31.6912246  32.8588057  52.5991488
  32.3875690  32.2991896  52.2553968  31.2884164  33.2449841  51.8214321
   7.4818706 100.5576832  37.0338249   7.0179986  99.9683530  37.6285887
   7.0955609 101.4177055  37.1992350  24.6356988  50.7888126  46.9533110
  24.9567652  49.8916149  46.8628120  24.9767947  51.2440538  46.1834812
  97.8147099   2.6236789  69.5969785  97.8739879   3.5052555  69.2288220
  98.1057332   2.0485370  68.8893426 112.0140506  38.8612199  33.9517355
 111.1543541  38.5619712  33.6557579 112.5187737  38.9740062  33.1462765
   4.4907477  39.9874830  64.0719509   5.3746700  39.9914169  63.7046671
   4.5973465  40.3375196  64.9564552  32.5805449  37.3843050  40.3319168
  32.4395490  36.7879128  39.5966148  33.1650281  36.9057441  40.9197855
   0.3857433  23.1164217  33.0447412   1.1743364  23.3332682  32.5474191
   0.0840555  22.2902203  32.6671076 108.1811504  23.4597993  28.2928395
 107.7653687  23.3341408  27.4398637 109.1191824  23.4717441  28.1026149
  41.1658621  60.7714415  17.7056420  41.7399168  61.2112808  17.0785618
  40.7771063  61.4829493  18.2144201  51.5138054  36.9031906  39.0559530
  51.8664694  36.8274331  38.1693172  51.0247421  36.0912466  39.1893744
  15.2436090  23.0839419  34.5592904  15.2447009  23.1217480  33.6028385
  15.5655289  23.9427304  34.8333025  32.5585485  10.8371425  47.3608541
  33.3201671  10.2722895  47.2300482  32.6222920  11.4903307  46.6640663
  13.6825836   6.2694055  14.2973113  13.1481576   5.7312679  14.8812890
  13.4466076   7.1702147  14.5188725  14.2897820  14.3210840  28.6095309
  13.7984991  15.1050735  28.3641028  14.6208143  13.9764571  27.7801442
   4.6896195  45.8118010  25.8969426   4.9177328  44.9125814  25.6611443
   4.7389334  45.8286333  26.8527222  16.3279283  20.1503086  63.9742994
  16.8753242  19.4450223  64.3194962  16.7039347  20.3472972  63.1163692
 111.3882923  14.5932734  11.3369346 110.6509696  13.9855397  11.2799478
 112.1601452  14.0293825  11.3869596   3.1651288  12.4089587   0.3653654
   3.1494248  13.1544805   0.9655170   2.2464406  12.2646105   0.1386330
  38.1369138  17.0366466  12.4476719  37.4911451  17.0416498  13.1542039
  37.6659656  16.6784036  11.6952741   2.8526717  17.7129126  44.7024488
   3.7945038  17.5633323  44.7849703   2.5944313  18.0848527  45.5457783
  12.1886206  19.4858479  22.4793291  11.5788758  20.1715803  22.2069073
  12.9299486  19.9602127  22.8556824  13.7247932  35.2373099  59.0771770
  14.4702494  35.4387927  58.5115480  13.8123560  34.3028164  59.2650223
  13.3044398  49.2359877  59.1569328  12.4376047  49.5663452  58.9209414
  13.8546383  49.4468164  58.4025669  91.3275299  99.8096437  46.4297533
  91.8288980  99.2365635  47.0097876  90.6664965  99.2372507  46.0403490
 107.6953177   2.0331515   8.9689153 108.5151593   2.4461523   8.6977661
 107.1794997   1.9740269   8.1647593 111.9984969  64.5516872  43.8783932
 112.8243216  64.5585823  43.3944511 111.3484640  64.2609596  43.2387304
  55.9757566   9.7315353  44.6194887  56.1343861   9.9079901  45.5468178
  55.0229073   9.6784693  44.5453548  22.5978422  47.2679472   0.7607023
  22.5697541  46.3112164   0.7710784  22.2674775  47.5078869  -0.1050457
 106.7404030  32.6958799  30.9738469 106.8474315  32.8230500  30.0311899
 107.6345019  32.6605964  31.3138103  85.3585814  48.5899162  29.9001932
  86.0605167  49.0982962  29.4939089  85.6131457  47.6775074  29.7625947
  71.9139954  85.3293484  85.9380424  71.6672394  84.6691650  86.5857315
  72.7105138  84.9836677  85.5351836   1.1558300  50.4444313  43.0170965
   2.0545198  50.6650305  42.7723026   1.2332477  50.0575161  43.8891840
  13.4804893  44.8084784  60.8559561  12.6516569  44.4789076  60.5086040
  13.8134325  44.0941906  61.3992596   6.3548708  40.5859280   6.3473839
   6.0577881  41.2917233   5.7730812   6.3568497  40.9739399   7.2224122
  17.3928595  15.8028829  44.0811634  17.5604999  16.6559243  44.4817209
  18.2354581  15.3503752  44.1198397  87.9476020  69.3679958  87.2703255
  87.7652117  69.1951125  86.3467044  87.7407214  70.2954095  87.3858065
  13.1648624  20.2766895  38.8670444  13.4234035  20.8597755  38.1533241
  13.1919396  20.8283854  39.6487927   6.6925061  38.9102364  20.2713370
   7.3462087  39.0065718  20.9638858   6.0191399  39.5557475  20.4860997
  83.6780254 104.9912418  34.9650359  84.4695649 105.5142221  34.8378015
  83.8407681 104.5028918  35.7720447 100.6596611  40.9047031  16.9617558
 101.4046501  40.4532242  17.3584771 101.0495459  41.4696169  16.2946022
  27.8180742  10.0521863  24.4637084  27.1139050   9.6155566  24.9430132
  28.4578800   9.3604559  24.2952180  24.1949081  23.4022832  35.6121230
  23.9467216  22.6088691  36.0866046  24.1396070  23.1563163  34.6887183
 103.4434120  60.3657961  30.1043224 102.8527962  59.6244860  30.2379823
 102.8866659  61.1374187  30.2085376 102.7428590   3.2550952  37.4234676
 103.0665038   2.6022980  36.8027091 103.0546592   4.0908980  37.0764136
  98.6871432  30.3104854  38.8147306  97.7866612  29.9957633  38.8941956
  98.7838612  30.9421492  39.5273876  38.6667943  15.4201329  35.9997892
  39.6013713  15.2982223  35.8326507  38.6267781  15.7780492  36.8866515
  33.7359667  26.9349766  74.2505455  32.9535842  27.4857092  74.2221832
  33.5192156  26.2429476  74.8753262  95.5419014  23.0851340  22.2286320
  96.1668955  23.3147073  22.9163170  95.2870224  22.1842122  22.4276567
  56.4254808  35.0340986  31.1144352  57.0022631  35.1835728  30.3652954
  55.8692741  35.8124113  31.1475205  78.6501932  20.1137567  44.5786524
  78.8022232  20.8274579  43.9591789  78.4732008  20.5524874  45.4107714
  33.0811191  23.0672860  33.6189485  32.8727484  23.9966702  33.7141180
  32.2314572  22.6419663  33.5031509  90.3127311  19.2458308  50.0858593
  90.5671738  18.3832312  50.4135990  90.0183009  19.7201741  50.8633852
  39.5033956  28.0748653  36.7816019  39.7022963  28.5492420  37.5888395
  39.4231820  28.7579918  36.1159182  27.8864336   0.9153151  41.2483931
  26.9554806   0.7905393  41.0640335  28.3346605   0.4047417  40.5741215
   0.8949884  17.8554511  19.7026384   1.4414491  17.8302431  20.4881167
   0.2089580  17.2085440  19.8672783 103.0928204  97.8089589  20.0798392
 103.5660884  97.8746999  19.2504239 102.7986810  98.7020124  20.2591991
  13.8076091  36.6379404   4.5961541  13.2884789  37.2804546   4.1125107
  13.4315717  35.7925916   4.3507737  38.2931709  28.9331532  33.4430408
  38.8814211  29.2488885  34.1289759  38.8193679  28.3069968  32.9457712
 107.1848838  40.2788115  42.6652813 107.8612189  40.2916813  43.3425093
 106.6848378  39.4818091  42.8412867  26.2513781  36.9986439  43.2655478
  25.4236889  37.4584007  43.4062052  26.6127872  37.3934102  42.4719620
  25.9072757   5.2389920  77.1200705  25.7464552   5.2183199  76.1767006
  26.3393545   6.0796809  77.2710133  79.8559020 103.5507164  25.3522253
  79.9127356 104.3452195  24.8214078  79.8731596 103.8648990  26.2562275
  47.5767183  25.5944490  48.7545347  47.8132200  26.4824343  48.4866095
  47.5023842  25.6436181  49.7075748  73.0406400  67.6529377  91.4930388
  73.3004281  67.7111106  92.4124722  73.4486767  68.4140771  91.0802387
  57.9568052  32.0467520  39.3159008  58.8633537  31.9841647  39.6167064
  57.9044580  31.4324665  38.5836840  91.7993066  76.9565933  84.9633432
  91.9260880  76.5778821  84.0934372  91.4300248  77.8236168  84.7956145
  88.4072886 104.2826671   8.6673725  88.9232693 103.8816882   7.9679364
  87.5224087 104.3435112   8.3074862  98.9256356  94.4190133  37.0674014
  99.1760132  93.6126602  36.6164708  98.9290807  95.0875104  36.3823247
  32.6995850  37.6113057  13.0740380  32.2180343  36.7871547  13.0025148
  33.6079907  37.3749828  12.8864706  83.9870737  62.9864645  15.6378436
  83.3233069  62.3007154  15.7113099  83.5405014  63.7836075  15.9230947
  40.1391172  46.0783005  16.0883999  40.7562733  46.7341518  16.4127564
  40.6666613  45.2873945  15.9770370 108.0047606  59.4608116  36.0035253
 108.4565727  58.8257980  36.5592742 107.3108666  58.9564562  35.5788279
  33.3416247  12.2126448  27.4160337  32.4908710  12.4927497  27.7536583
  33.4946799  12.7746153  26.6564322  26.7459153  98.8647026  53.1258821
  26.5278529  98.3476163  52.3504448  27.4613284  98.3832741  53.5413837
   1.1101391  50.5470848  62.4928141   1.1471733  51.3792419  62.0212460
   0.6354219  49.9595404  61.9048786   9.5990527  44.1095972   5.8990765
   9.6317333  45.0583792   6.0214561   9.8656040  43.9761019   4.9894822
   1.4121631  16.0394037  24.0328765   1.7756774  16.6533279  23.3947659
   1.4408758  16.5130329  24.8641920  20.5660129  26.6542006  30.9717369
  21.1482310  27.2891665  30.5545187  19.6849144  26.9548106  30.7491851
   4.2655149  39.1083932  51.3458872   3.7249601  38.8769794  50.5905867
   4.7294477  39.9005151  51.0747004  21.1647034  13.3187699  30.9835839
  21.8087387  13.2643306  31.6896200  20.5935931  14.0443492  31.2357712
  34.5298171  31.2320065  30.0746775  34.3481135  31.6086197  30.9357119
  34.2441773  31.9029856  29.4546533  84.0224508 101.2828893   7.1060252
  84.4667480 100.8616436   7.8418136  83.2657460 101.7170305   7.4999171
  28.7030482  51.6792202  57.8237104  27.7553940  51.5604019  57.7599669
  28.9786005  51.8896770  56.9315195  15.1689887  16.2125778  15.4319561
  15.0626361  16.1515951  14.4826388  14.3748713  15.8140481  15.7880223
 112.6534447  12.8193271  43.1232023 113.4137677  13.1598878  42.6518631
 112.2460300  12.2073579  42.5102282   4.7366673  26.1881375  22.5053644
   5.5888122  26.6056323  22.6309752   4.9016526  25.4943562  21.8668628
  19.5614338  48.5159540  32.1873403  18.9788067  47.8115034  32.4711132
  19.9106681  48.2146835  31.3485885  27.1329331  35.5899000  50.3961563
  27.1577144  36.3785529  49.8542643  26.8117261  35.8928418  51.2454367
  30.2792478  66.7806292  15.9064209  30.8320570  66.3426781  16.5535939
  29.6533966  66.1099958  15.6329381   4.3898118  14.9759376  23.0521798
   4.5907116  14.7232163  23.9532900   3.7154239  15.6498945  23.1371260
   6.9471978  85.9954930  19.0852106   7.7770042  86.3426138  19.4125688
   7.1721982  85.5841685  18.2506931  44.1455889  23.3464122  21.5962100
  44.2004871  24.2281365  21.9646931  43.8089466  23.4777784  20.7098436
  39.2799544   8.2329869  53.9932489  39.8424459   7.5077981  54.2651606
  39.5137095   8.9510059  54.5814991  39.5016646  28.3148074  46.5499496
  39.4999409  28.5884094  45.6326866  39.4978952  27.3582673  46.5145779
  10.2798688  41.8109941  60.2873182  11.1603487  41.4355564  60.2934694
   9.8092794  41.3071299  59.6233177  32.5014186  45.2860928  33.3637094
  32.6348734  45.3683281  32.4194312  32.4857092  46.1883831  33.6828589
  28.5837030   5.5902237   6.3892955  29.0588546   6.1670202   5.7911569
  28.8864732   5.8466607   7.2603881  63.7853870  90.6720961  49.8348093
  62.8921053  91.0060275  49.7525358  64.1795025  90.8283806  48.9766264
  43.2682896  13.6590338  56.4400911  43.1908083  14.5342112  56.8199539
  42.4640512  13.2116401  56.7032814  81.0399888 103.3742604  36.6828227
  80.4370830 103.6423976  35.9893990  80.4714135 103.1246991  37.4112964
  34.0179038  22.2940254   8.7315363  34.0558529  21.9085073   9.6068466
  34.6197701  23.0372882   8.7708819  27.7701163  22.4150968  23.6213565
  28.2422876  22.6551414  24.4186449  28.2657504  21.6793704  23.2617903
  67.6329037  75.7923096  85.6261272  66.9070336  76.4022129  85.7578904
  67.2273680  74.9260061  85.6620670  96.4060805  95.9078312   4.9178553
  96.2590835  95.2270997   5.5745357  97.2378490  96.3086093   5.1703787
   5.1425421  30.4860449  41.5887260   5.6451607  30.8552003  42.3149014
   4.2396140  30.4701424  41.9060564 110.7397322  16.3184428  28.4546757
 110.6245498  16.8543458  27.6699638 110.8046873  15.4220986  28.1251597
   2.5648651  67.3839617  53.1399918   3.1469771  67.7047062  52.4511528
   3.0112416  66.6135263  53.4912872  45.8716774  32.2139740  21.3229966
  45.3786230  31.5721512  21.8340683  46.6808271  31.7608452  21.0859680
  58.5957214 100.8707111  85.2857280  58.8292643 101.1534994  86.1698765
  59.1124722 101.4341181  84.7097278   8.2708215  72.0482469  27.9780555
   8.5509633  71.1816288  28.2725549   8.5538816  72.6409197  28.6743665
  39.8835473  50.5897053  91.9585960  40.4138210  50.1528137  92.6250546
  39.3716976  49.8856904  91.5603441  36.4545298  71.3054132  15.3493929
  37.0534635  71.8391609  14.8272562  35.6864667  71.1903858  14.7898591
  42.4934053  15.4745555  32.5587344  43.2117176  14.8897219  32.8000307
  42.5568390  15.5517054  31.6067600  32.1412325  53.3942366  42.9920244
  32.2970724  54.1129684  43.6046982  31.5005946  52.8372145  43.4342241
  61.7700720  12.2231078  31.1787653  62.6573086  12.5086999  31.3966489
  61.4790916  11.7361307  31.9497514  39.6437550  48.0126095   4.8944044
  40.2770185  48.2928705   5.5552083  39.1461062  47.3146725   5.3203821
  24.3662143  31.1994076  52.1266842  24.8893332  31.9949007  52.2255135
  24.9175906  30.5040526  52.4854279  12.4293005  56.3225889  53.3823109
  11.6573524  56.8693876  53.5283899  13.1249595  56.9433165  53.1655550
  29.9677896   7.0769221   4.5045841  29.8806024   7.6080269   3.7130302
  30.8919644   6.8285561   4.5257771  18.3835590  12.5569475  49.5713139
  18.4630048  13.0260777  48.7407494  18.5361540  11.6397655  49.3438816
  21.3609982   2.7685934  32.3243117  21.3873386   1.9914262  31.7661452
  20.4532194   2.8176403  32.6239204  55.5171967  32.4186635  36.6034579
  54.9801445  32.0372081  35.9089804  56.4019489  32.1003628  36.4242148
   0.4599698  11.7445230  13.1823254  -0.2059655  11.2962246  12.6609898
   0.3814216  11.3582313  14.0545881  20.1529241  52.0434809  35.9566903
  20.3590178  52.9134464  35.6147552  20.9397221  51.7814493  36.4347291
  14.1513705  38.9804053  18.0447340  14.0660989  38.1251574  18.4660542
  14.7146976  38.8194084  17.2877836  30.7315207  49.0965939  56.0812759
  31.3145804  49.6484947  56.6025019  30.0062799  49.6735620  55.8417749
  78.5147292  10.5393045  86.8673182  77.8393400  10.9298818  87.4218738
  79.0916318  11.2692564  86.6424036 111.3206617  41.7824316  50.6037664
 111.9949554  42.3670626  50.9498358 110.6253575  42.3687887  50.3054905
 110.2133666  25.5333638  46.4560080 109.4103707  25.9718704  46.1746836
 110.8808999  26.2190485  46.4343596  53.9245844  54.4111443   4.9687409
  54.1516256  53.7167835   5.5872452  54.0940189  54.0294981   4.1074222
  85.1214406  74.5636933  75.9280026  84.3271538  74.5364779  76.4614833
  85.3645035  73.6450022  75.8132804  19.6828520  75.2870560  27.1538472
  19.9326658  75.9661293  26.5271997  20.3998089  74.6538019  27.1192861
  31.3495016  96.3523865  49.0423584  30.4781032  96.6228008  49.3317938
  31.2189150  96.0432529  48.1459141  12.3506450  10.1903646  75.7074225
  11.4724826   9.8931568  75.9456063  12.9328584   9.7190588  76.3033474
  44.0747786  60.5689096  47.1739054  45.0109196  60.7684660  47.1806479
  43.8324022  60.5883503  46.2481070  37.1034193  37.0630121  42.8842402
  36.4010644  37.5470090  43.3186102  37.2284317  37.5181127  42.0514822
 108.9779328  60.6994677   2.5860000 109.1000442  59.7546339   2.4932177
 108.0291574  60.8224773   2.5555870  71.2196395 106.6555035  19.5357966
  70.4107747 106.2160763  19.2733610  70.9268067 107.4544292  19.9742007
  55.5334377  23.9462686  35.7126045  55.5589628  24.6784806  36.3285971
  56.2416315  23.3687639  35.9975386  47.7950335  31.8719411  24.9468136
  47.5764704  30.9485221  25.0723529  47.0092201  32.3437262  25.2227664
  49.4694376  38.8364792   3.9741349  50.3348494  38.9210916   3.5739669
  49.0213299  39.6521926   3.7504333  16.3898504 101.2992096  87.9963207
  16.0949004 101.2679672  87.0862293  15.6925142 100.8666039  88.4890747
  17.5308704  57.5437307  53.3530331  18.1031334  57.3742914  54.1013908
  18.1207001  57.5600195  52.5993299  17.6944864  47.5193071  29.6741152
  16.7456365  47.6189423  29.5967293  18.0539155  48.1922483  29.0960217
  16.1474955  49.6330214  45.2791977  16.1112273  50.5893087  45.2999210
  15.8366525  49.3627691  46.1432457 110.5476366  75.8684874  34.9675798
 110.8508496  76.3640928  34.2068768 110.1141761  76.5190029  35.5200028
   7.8798765  57.7073336  22.3013520   8.5690093  57.5715160  21.6510582
   7.8796089  56.9037580  22.8214502   7.4873883  26.5420127  22.2837734
   7.7270621  27.1265721  23.0028558   8.2327551  26.5813756  21.6845155
 104.2463164   8.6531103   9.8966336 103.2936130   8.5605592   9.8917764
 104.4447599   9.0428078  10.7480955  53.1089258  81.1175728   8.5873878
  53.2847977  80.9708309   7.6579970  52.2275782  81.4904213   8.6084157
 109.8551391  25.5828190  36.6946793 109.6889113  25.2965140  35.7965541
 110.1849075  24.8012257  37.1380687  26.5373778  24.6014333  27.2598386
  27.3659205  24.7112155  27.7264166  26.7669296  24.7053123  26.3363957
  38.3492899  36.6187692  29.2296672  38.3267379  35.7875204  28.7555933
  38.5461283  36.3736129  30.1337624  12.2657966  16.2431924  87.8737888
  12.7380466  17.0602958  87.7139420  12.9490708  15.5734985  87.9033462
  32.6285195  50.1927996  15.4112363  32.9775715  50.9507990  14.9423707
  32.0888925  50.5689621  16.1066020  11.6551983  65.8040524  41.2065315
  12.5252032  66.1399698  40.9909344  11.5092278  65.0965595  40.5785370
   2.9331556  17.8941131  53.0914259   2.1528557  17.4871480  52.7149343
   2.6482818  18.2105827  53.9487028  45.2622366  64.3972540  41.6054678
  46.0119486  63.8330936  41.7948961  45.3919697  64.6711683  40.6975174
  19.2510474  47.4141312  74.9647284  19.7473896  48.2116508  74.7807741
  18.3806074  47.5854778  74.6052742   2.2770587  78.1862450  53.7493324
   1.7372569  77.6994801  54.3721533   3.1036356  78.3301353  54.2100859
 101.6727470  36.9075322  20.8427382 101.2057446  36.8966126  21.6782141
 102.1853827  36.0991788  20.8443117   6.7353630  37.2397828  85.2020359
   6.4849550  36.3724113  84.8839283   7.1493536  37.0739555  86.0490036
   6.6239974  82.1025246  76.3158799   6.1300179  81.3439315  76.0048330
   7.3483321  82.1872848  75.6958902  23.2101583  40.3505850  58.7243557
  22.5054860  40.6097984  58.1306553  22.9914784  40.7735395  59.5547295
 101.6763136 104.1893930  29.4492936 102.5175116 103.8567246  29.1363215
 101.2152026 104.4596394  28.6552048   1.1860361  59.9418354  71.8349504
   1.4464743  59.1985130  71.2910032   1.8740354  60.0066376  72.4972868
   2.6957324  53.2995462  40.1645947   3.4822178  53.0152559  39.6989202
   2.9593995  53.3289194  41.0842943  55.9966087  25.9063435  54.5776558
  56.7375135  25.3898072  54.8946476  55.9390926  25.6957507  53.6456823
  20.2897143  49.2314339  52.4633169  20.5532312  49.1145754  51.5505552
  20.3268957  50.1774931  52.6041031  49.8678255  42.7277994  20.7766557
  49.7284174  43.4128046  20.1227713  50.0595903  41.9426346  20.2638507
   9.0090936  46.4110231  16.5081799   9.7062129  45.7555199  16.4842153
   8.9536607  46.7346907  15.6090701  31.9217253   8.0131590  25.8299136
  32.3343873   8.0414551  26.6931295  31.6092849   8.9061558  25.6844139
  22.0068049  24.8879194  45.8308792  21.5018129  25.6978345  45.9033489
  22.8426623  25.0883293  46.2520790  10.4197407  71.9914198  32.9356551
  10.4023147  72.7896214  32.4076366   9.7938585  72.1569395  33.6407137
  27.3186350  59.4864845  27.2556233  27.0521116  59.1668177  26.3936448
  27.1756315  60.4320765  27.2151375  39.2785072  58.8513374  59.0345383
  38.8872242  58.3472395  58.3210850  38.6360431  59.5347595  59.2253447
  32.2426963  81.4547539  69.6932411  33.1617808  81.6268063  69.4885159
  32.1326017  80.5177879  69.5313931  10.3781486  40.7998657  11.2044561
  10.8421671  40.4528141  10.4425681  11.0341072  40.8072281  11.9015181
  10.9832573  68.6611176   9.7052467  11.8948770  68.8288689   9.9440813
  10.8633387  67.7243233   9.8610342  88.8466452  48.9581823  37.3598671
  89.7674774  48.8712502  37.1134043  88.6519621  48.1565905  37.8454399
  14.0741250 103.1941288  81.7268277  13.4612176 102.9028624  82.4019122
  13.5156867 103.5118311  81.0172904  43.0380011  50.9700823   1.5969540
  42.1708488  51.3643837   1.6908149  43.2230711  50.5911112   2.4562347
  34.4426727  39.7248554  55.5804110  33.5510492  39.7227335  55.2322245
  34.3300319  39.6471405  56.5277767  87.8149697  80.9875124  88.8641268
  88.4633490  81.5909904  88.5012958  87.6291701  80.3778570  88.1499619
  17.4465442  73.9758253  28.6905479  18.2024312  74.3607092  28.2470012
  16.6909623  74.4178820  28.3033609  42.5941133  70.6433201  15.2621520
  42.3324442  70.2204609  14.4442582  42.3607731  71.5637350  15.1412511
  40.1916313  51.2051582  26.8485928  40.3938341  51.4207268  27.7590179
  39.6549702  51.9364071  26.5428209  16.6699386   8.0532306  48.4153461
  15.7755351   8.0352241  48.0748320  16.7471325   7.2488374  48.9283991
  89.6755861  56.5018606  36.1005378  89.1240190  56.6643763  36.8657804
  89.1137885  56.7054796  35.3527737   2.6770836  94.7815228   7.6350796
   3.5035202  95.1862717   7.8985500   2.3822834  95.3030205   6.8885088
  53.5910749   0.5556803  34.5077252  52.7578926   0.6769411  34.9630713
  53.9180470  -0.2855531  34.8265481  47.1877813  37.1801448  39.8691344
  46.2628078  37.2852230  39.6463943  47.6447916  37.7870917  39.2869067
  64.8649883  39.5102763   7.3353803  64.3101454  38.7337899   7.2615331
  64.5129347  39.9855137   8.0880034  34.7372150  55.7569599  29.5442533
  34.5093322  56.0910463  28.6766791  35.4652905  55.1560783  29.3858790
  33.7459493  15.7325017  19.9364805  34.6979117  15.6996894  20.0309300
  33.5502577  16.6600347  19.8037457  26.0956359  46.0472775   7.9770410
  26.5757155  45.6509876   7.2499162  26.7591166  46.1916399   8.6517155
   0.7642094  60.3094816  14.9274051   0.2529610  59.6541309  15.4021418
   1.6672009  60.1564217  15.2056336  22.1288681  48.8545942  41.0786915
  21.9195604  49.3961239  41.8397188  22.7044678  48.1712008  41.4220381
  31.9691777  57.9228401  23.3600211  32.6924181  57.4254799  22.9782009
  31.2458539  57.8046179  22.7443457  40.6880426  52.0438242  29.3934870
  41.2023973  51.3273335  29.7653818  40.1507044  52.3559618  30.1215482
  46.0198498  42.4023533  23.8252544  46.4642143  41.8538952  24.4717550
  46.5801477  43.1737232  23.7399077  49.7750807  52.6394033   8.7579215
  48.8310480  52.5563192   8.6232531  50.1639271  52.2499180   7.9747671
  31.0904694  43.5459185  16.8794000  30.9060240  44.4364882  16.5809107
  30.3138280  43.0444527  16.6312194  37.8241730  87.2235012  32.3372960
  37.5350356  88.1076622  32.5628853  37.4947047  86.6748524  33.0490971
  21.8236446  46.1010742  24.1072893  22.4373865  45.6555796  23.5232615
  22.1819758  46.9834614  24.2033195  22.6392365  64.9815083  33.3995843
  23.0713415  64.1882515  33.0829406  23.0457568  65.1528788  34.2490578
  55.5104828  23.2615733  21.2468863  55.3266716  22.4416423  21.7053175
  55.3221226  23.9437556  21.8913817  32.0823336  47.8100061  46.1586618
  32.4677181  48.0283833  45.3101158  31.4374948  48.5002327  46.3136053
  11.4885008  41.4948750   3.5696837  10.5407202  41.6144943   3.6299780
  11.8427920  42.0259619   4.2828858  46.0091305  24.2656541  35.1711345
  45.1384401  23.8680172  35.1677155  46.6078234  23.5324979  35.0287247
  49.7255564  71.6310310  25.7756066  49.5077515  71.3523340  24.8861575
  50.2539444  72.4202681  25.6566715  16.8434417  79.6175718  37.7679253
  17.7691638  79.8357105  37.6598191  16.7570817  79.3921089  38.6941767
  52.1736383  32.9964137  75.1211071  52.2326469  32.5557876  75.9688091
  51.5238047  33.6864424  75.2545595  44.3723154  34.3235087  21.0445929
  45.0271606  33.6367202  21.1700368  44.3974400  34.8296046  21.8566704
  58.7069368  34.8358035   1.3472453  58.8201332  34.7681546   2.2953179
  59.5909691  34.9812508   1.0102546  18.4669161  57.8513241  30.2629924
  17.5763988  58.0321980  29.9621677  18.9930916  57.8445387  29.4634151
  48.0335712  75.6265020  26.6050172  48.3790827  76.2328005  25.9498405
  47.2591209  75.2439737  26.1925411  33.8581109  40.9943676  25.5801558
  34.5981145  40.3960800  25.4768300  33.1580687  40.6017828  25.0585699
  43.2914305  85.6211376  61.9298983  44.0406609  86.1925316  61.7613935
  43.5387754  85.1258564  62.7107668  22.5879741  63.9019775  44.8172617
  22.0547032  64.6965599  44.7950363  22.5888443  63.5887337  43.9127684
  54.0031338  36.6113663  49.8159981  54.2305565  37.2619963  49.1517735
  54.8031902  36.5046453  50.3305435  91.4118848   7.0548742  77.7386678
  91.7549357   6.1764448  77.5746262  91.9908509   7.4166744  78.4095848
  16.5591741  63.3624744  26.2496781  16.3168132  63.5355330  25.3399849
  16.0213757  63.9678144  26.7601371  61.1213371 106.0093611  71.7169822
  61.2514803 106.9570034  71.7526162  61.0493681 105.8124369  70.7830251
  10.7880092  49.2437983  30.3371644  10.8060634  49.9721098  30.9580255
   9.8919809  49.2382145  30.0005126  35.2499843  49.6195650  47.0347404
  34.6120429  48.9285135  46.8566561  36.0486770  49.1513586  47.2778606
   0.7676937  33.0896544   2.4789974   0.6189441  32.9868722   1.5390289
  -0.0253161  33.5178018   2.8015769  44.4648838  48.3451700  12.3794520
  45.1458740  48.0330515  11.7835784  44.9455261  48.7073898  13.1237698
  46.4258146  52.1606874  11.8799758  46.2189007  51.4094973  11.3239813
  45.7852936  52.8268671  11.6306269 110.5607016   7.1326560  36.8798447
 109.7701733   7.3378301  37.3790455 110.9375991   7.9862964  36.6665888
  33.0896640  72.1848297  67.2782087  32.5318480  72.9142475  67.0079803
  33.6004424  71.9718027  66.4972115  93.1980941  93.7414663  76.5641225
  93.7347790  93.3801716  75.8586657  92.3464677  93.3174604  76.4583683
  54.4333887  44.4082451  30.1236868  53.8866329  43.7749386  29.6586990
  53.8109350  44.9590683  30.5984259  23.3865094  44.1602087  19.5845664
  23.3314943  43.2056475  19.6294796  24.3254900  44.3459702  19.5782244
 105.9338830  12.8097503  87.3726112 105.6852553  13.2150571  86.5418637
 106.8865655  12.8965061  87.4057865  25.4038429  70.6383181  56.4430094
  25.4429150  70.6283665  57.3993587  26.1818266  70.1540756  56.1664629
  47.8170729  35.5464673  28.3728528  47.8845644  34.9649072  29.1301274
  47.0108175  35.2754545  27.9338336  87.7496910  25.1632118  45.3003120
  88.3404160  25.2252269  46.0509253  88.3308697  25.1233840  44.5407867
   9.8890918  59.2334080  42.4119043   9.5043826  58.5050917  42.8995371
   9.4422263  60.0099039  42.7489567   7.9864681  52.7166843  37.7458525
   8.0897647  52.5961399  38.6897969   8.2789028  53.6139154  37.5855565
  17.8078008  54.1094303  10.3806865  18.6909509  54.4613171  10.2690899
  17.9160559  53.1615543  10.3029299 101.4751002  72.8347521  87.8715569
 100.8991381  73.5345023  88.1795317 100.8843466  72.1976846  87.4698258
  50.8629704  30.3812432  17.5037849  50.0850010  30.8701134  17.2354639
  50.6731462  30.1017547  18.3993769  26.1074781  34.2977381  11.8747699
  26.5093732  34.2039919  11.0111010  26.8098879  34.0870047  12.4899483
  11.5733325  62.4213457  19.6272850  11.4134753  63.0567598  18.9294839
  12.5205195  62.2839260  19.6137118  35.7819295  31.4776182  73.2533693
  36.5325022  31.8409085  73.7233639  35.6892848  30.5900478  73.5995865
  37.5152373  45.9569788  17.9603696  36.6901016  45.6613588  17.5756752
  38.1035900  46.0630751  17.2128296  32.8807759  72.3401690  32.1908665
  33.1540680  71.5924549  32.7223468  33.6702919  72.8745651  32.1053457
 102.5413249  31.8420045  68.0641163 102.9422805  31.2439554  67.4333966
 101.9182966  32.3527830  67.5472248  17.3518074  48.5654640   1.9205450
  18.1367683  48.2697201   2.3816325  17.2177112  49.4623518   2.2268888
  35.2289319  19.1646850   8.0070037  34.3591046  19.3399286   7.6479489
  35.5409551  18.4032691   7.5180024  49.2899132  52.5466347  24.5905590
  50.1092052  53.0032301  24.7816563  48.6067915  53.1867361  24.7901773
  33.0419803  36.4950633  21.4043045  32.9127526  37.3169899  20.9310484
  32.1599078  36.1390781  21.5113378 107.0219605  30.7754040   9.5333648
 107.3633133  30.3785443   8.7319827 106.4037006  31.4390326   9.2274529
  23.1626010  50.3802204  57.7924156  22.5260615  50.7007694  58.4313917
  22.7304196  49.6336222  57.3776245  83.1391691  51.7784643   9.6173131
  82.3856400  51.7664719   9.0271568  82.8129552  51.3923168  10.4301512
  18.6962473  71.2666798  45.8233356  17.9123378  71.6923428  46.1705112
  19.4242108  71.7470217  46.2177658  38.6730337  21.9430161  44.1623688
  37.9212737  21.3507223  44.1790056  39.4006920  21.3980985  43.8626862
  58.3024693  42.6033592  14.5418310  58.7714672  42.9628849  13.7888253
  57.4956179  43.1162262  14.5886266  25.4667330  46.7630482  21.5811920
  26.1249971  46.8777704  22.2665834  25.9567475  46.4214230  20.8332562
 107.0631568  23.8915253  45.3238916 107.2388934  24.4106126  44.5390987
 107.7722798  23.2491088  45.3498983  62.0060205  46.2505531  36.1538482
  62.8644848  45.8503342  36.2920260  61.4074183  45.5088758  36.0654426
  29.7650886  10.9429348  64.4320250  29.1458035  10.2471113  64.2116880
  29.2319894  11.7373765  64.4620228  13.9272475  70.9452868  70.0846100
  14.1113174  71.2230778  70.9819269  13.2449985  71.5452766  69.7833204
  47.6033545  44.4246864  53.9004564  48.1579304  43.7417507  54.2776489
  48.0064487  45.2448988  54.1850519  18.4201038  31.9760537  31.9196105
  18.6236894  32.6558065  31.2771773  17.5803471  31.6181278  31.6316366
   8.2725072  37.1257329  39.1896391   7.7597171  37.6655030  38.5880351
   8.8802701  37.7389789  39.6028996  19.6383202  37.5646973  27.1464062
  20.5353665  37.3935175  26.8596292  19.1545916  37.7261376  26.3363600
  50.2981996 105.7361798  17.4747074  50.8869218 105.6208179  18.2205784
  50.0128125 104.8492206  17.2554064  19.9872053  92.4879837  32.0471978
  20.6156397  92.6596069  31.3458800  20.2081418  91.6097164  32.3571467
  76.8866584  98.6016386  73.5904038  75.9520838  98.4162062  73.4986639
  77.2567531  97.7951496  73.9493382  51.1930180   6.1662537  41.5576792
  51.4388227   7.0500392  41.2843037  50.9299135   5.7294482  40.7476091
  34.4171000  33.2907057  54.3086910  35.3653955  33.1782269  54.2429972
  34.0572977  32.6593947  53.6856127  23.6843181  88.9218903  39.7402859
  24.5354319  89.2452908  39.4449067  23.7152267  87.9797554  39.5739841
  25.2141213  65.0920200  26.0868812  24.9188423  65.6568146  25.3727055
  25.0461292  65.6010532  26.8799114  15.6865859  64.6421432  51.1507082
  15.8041203  65.1142597  50.3263760  16.4148772  64.9332714  51.6994047
  54.6647835  70.8282137  13.8859212  55.2756500  70.0934553  13.8292789
  54.0235901  70.6603956  13.1953144  16.7674053  31.0756373  38.9969635
  17.3062897  30.9150314  39.7715878  16.0000551  30.5165911  39.1189122
  47.4618578  76.5503693  31.2401390  47.2655106  75.9011984  30.5646682
  48.4057522  76.4732885  31.3792539  29.3630075  51.4161921  26.0080886
  29.7774982  52.2776318  25.9596133  28.8442945  51.3545036  25.2059889
  13.6797059  68.6802816  44.1965675  13.1404400  69.1977835  44.7945786
  13.1761098  67.8791428  44.0523529  19.5516932  25.8081532  65.9630966
  20.1037169  25.0272799  66.0048246  18.6589229  25.4675937  65.9064198
  50.7570553  18.6606359   5.7830018  51.0877085  19.4150209   6.2706524
  49.9111366  18.9490521   5.4402739  43.8510942  36.4113474  70.7253885
  43.1902027  36.3224506  70.0386953  43.8312435  35.5729818  71.1868858
  32.7321410  91.8153381  18.7936890  33.6059427  91.5310478  18.5255826
  32.7271080  91.7091751  19.7449708  50.0349092  62.3199701   1.5796465
  49.8501062  62.8761959   2.3364121  49.3566132  62.5475788   0.9437663
  43.4319258  54.9740982   1.6482534  43.8681555  54.2633295   2.1180877
  43.2787037  54.6228075   0.7711260  46.8282127  10.2333343   1.7149708
  46.4021397  10.7524908   1.0329351  46.4668179  10.5714989   2.5342825
  12.2172821  41.6832018  26.5797806  12.8304863  42.3425388  26.9045687
  12.7609658  40.9142590  26.4084172  58.3215952  46.3903093  25.1769376
  57.7676916  46.8802023  24.5691299  58.3059692  46.9054365  25.9835577
  16.5549600  46.2010622  56.0693598  16.6014051  47.1099710  55.7727814
  15.9382534  46.2191391  56.8011904  31.0540771  27.2447300  13.4301519
  31.5981174  26.8082905  14.0857220  30.2269435  27.4155736  13.8805938
  10.7828879   4.0974113  20.6180501   9.9597806   3.7621850  20.9735084
  11.4470184   3.4839404  20.9324002  52.6957607  42.8851986  28.8930368
  52.4026585  42.3134232  29.6025395  52.1866560  42.6038408  28.1328511
 108.2913469  42.8327513  36.2094831 109.1849254  42.8472042  35.8666420
 107.8255366  43.4894466  35.6918001  17.8788900  24.9548595  87.5771922
  17.9187249  25.6996267  86.9772256  17.5054073  24.2455833  87.0540572
  55.4032421  47.5358820  31.6126943  54.8489761  47.1009541  32.2606587
  55.3084946  47.0052719  30.8216763  20.6962824  34.4096136  51.3226366
  20.7866216  34.8969054  50.5037212  20.5569005  35.0833535  51.9881248
  96.5015028   3.8649147  89.2472822  95.8434413   3.1835573  89.1096658
  97.3217294   3.3855789  89.3642956  51.4420366  48.2188129  10.2818930
  52.2776079  48.6774158  10.1938963  51.6640520  47.3991394  10.7235682
  21.3274527  16.4010715  55.6166363  20.5146933  16.1534834  55.1757812
  21.0436702  16.9260633  56.3650227  48.1629276  18.3108568  20.3329420
  47.3351908  17.9088593  20.0693560  48.2380581  18.1142116  21.2667060
  67.4492407  22.7677107  71.1440420  67.2747612  22.3405123  71.9826698
  66.6073322  22.7545309  70.6887913   5.9447217  13.1885874  58.0004549
   6.3054985  14.0194607  58.3098459   5.7612848  13.3377016  57.0729065
   6.3403076  18.0584049  35.2553535   6.6382080  17.8664565  36.1445355
   7.1242809  17.9635990  34.7144008  52.5174856  22.7382135   5.4980791
  52.9598999  23.1774116   6.2244451  53.0359221  22.9688907   4.7272065
  47.6425457  20.6014419  32.0565867  48.3330584  20.9936428  31.5221667
  46.9406271  21.2522435  32.0562577  36.2214613  22.4934721  66.8142462
  35.8727264  23.3810306  66.8970490  35.5250788  21.9300675  67.1516752
  27.9196763  29.7957039  22.4700117  28.2350755  30.5732846  22.0094395
  28.3717680  29.8170710  23.3134508  48.3652163  24.1371870   0.2582283
  48.8909531  24.7509122  -0.2547777  48.9896488  23.7314129   0.8596124
  52.2194767  18.8667274  26.1426640  52.0691967  18.1842053  26.7967367
  51.7359018  19.6244335  26.4717078   4.5097619  14.8058939  28.4096265
   3.9926162  14.0902507  28.7792850   5.3268141  14.7933173  28.9081240
  43.7039423  75.9676743  21.9224501  43.0094004  75.9188890  22.5793076
  43.6747837  76.8718910  21.6097522  -0.2285440  55.3629398  46.3432837
   0.0238308  54.4492388  46.2102556   0.2671998  55.8469439  45.6828213
  18.2794881  37.7144265  48.7666368  18.8084054  37.9224086  49.5368433
  17.5672102  38.3535933  48.7855148  39.6815324  98.8992310  50.4008579
  39.7300410  98.6454678  51.3225317  39.5908356  98.0713844  49.9289656
   2.0910631  49.9453831  14.4734597   1.4524841  49.9016762  15.1851737
   2.9403651  49.9645376  14.9145389   3.5427761  35.5347323  61.4728928
   2.6605031  35.2199721  61.6697502   3.7067810  36.2131047  62.1279860
 104.3391101  44.7087002  38.2726598 104.1463713  44.9066639  37.3562026
 105.0117420  44.0287447  38.2344794  33.9197397  48.4791327  21.2298799
  34.3724728  48.6847305  22.0478034  34.0448999  47.5368738  21.1171556
  23.5624790  34.9292088  31.1625838  22.6066327  34.9793029  31.1713696
  23.7884164  34.5174336  31.9966269  42.4905825  56.5048313  31.6425443
  41.7398787  56.5901804  32.2302437  43.1938362  56.1706209  32.1992946
  32.8078675  49.5927715   4.0452427  31.8878651  49.7078419   4.2831257
  33.1991982  50.4562950   4.1772255 113.5023151  58.3113718  42.5555849
 112.7536777  58.6486530  43.0475378 113.1935988  58.2663059  41.6506577
  73.8477707  37.7635884  30.5805922  74.7964478  37.8565574  30.6677794
  73.6356354  36.9827294  31.0919523  56.5827179  35.6579065  25.3348017
  56.8012428  34.7953320  24.9820304  57.1689129  35.7658887  26.0837674
  22.1147870 103.8521156  63.8582516  21.2624644 104.2824352  63.9260817
  22.6918553 104.3745222  64.4153070  25.9078526  46.4638901  59.5788193
  24.9657845  46.5651226  59.4428396  26.2220144  46.0458422  58.7770891
  51.8166065  36.3471246   1.3378035  52.5354910  36.9775128   1.2925544
  51.1194086  36.8117404   1.8007109  25.0088978   7.2262436   6.4945072
  25.6624436   7.4680573   5.8382767  25.3509355   6.4239120   6.8888521
  32.1060753  53.3803129  28.5968590  31.5413523  53.8341904  27.9713058
  31.4996409  52.9174232  29.1749620  38.4933162  64.3309355  12.6107609
  39.2237020  64.2842531  11.9938445  38.8674045  64.0516901  13.4464121
  30.0753784  45.2673292  26.1026883  30.5276012  44.4321871  25.9832382
  30.7732272  45.9222507  26.0849977  40.4330683  60.4942369  39.4147611
  39.6198416  60.2616835  39.8628783  41.0334539  60.7380915  40.1192522
  39.6623182  21.3109183  13.7099242  39.2935658  20.7746029  14.4117928
  39.5098996  20.8015394  12.9139745  45.8593082  44.1904926  20.8581090
  46.0097027  43.4627247  20.2548122  45.2705240  43.8328981  21.5227127
 105.3837512  35.0576234  58.1313658 106.0548244  35.2555060  57.4781132
 104.5921569  35.4791498  57.7968168  40.2591753  64.5382786  17.9086971
  40.8335829  65.0347757  18.4916055  40.1615620  63.6874676  18.3362675
  17.8904688  41.6214085  56.6846371  18.7878919  41.3327169  56.8505335
  17.4113023  41.3818550  57.4778891  96.8186710  11.6491430  88.6415193
  97.0555637  10.7469146  88.4268186  97.3701761  11.8694131  89.3922228
  38.4744215  42.2640467  55.3991795  39.2273498  42.8160954  55.6103039
  37.8408384  42.4476242  56.0927963  96.2680003  63.8902002  86.9692093
  95.8191439  64.7346478  87.0100588  95.8337399  63.3557242  87.6340312
  32.4070454  56.2961245  31.0009336  32.9825544  55.9981108  31.7053556
  32.8738689  56.0672283  30.1972461  29.8335028  57.8094816  42.0264244
  29.6024251  57.5865602  41.1246824  29.5232415  57.0663691  42.5438786
  55.9727144  58.8522243   5.2432501  56.2513733  58.2420158   4.5604402
  55.1150894  58.5282803   5.5185103  19.8209131  26.5539217   2.0315747
  20.1146793  27.0621037   1.2754762  20.5797482  26.0225368   2.2724712
  51.9654894  34.9102354  12.6451457  51.5391970  34.8732924  13.5013831
  51.3543224  34.4704413  12.0541382  65.9126329  71.8186855  22.1884894
  66.3861370  72.4965334  22.6707196  66.1393881  71.0035801  22.6361704
  32.6296854  42.7830744  40.9298038  32.2239733  41.9161606  40.9394217
  32.5463843  43.0965090  41.8303871  41.1420727 101.5563869   3.8842475
  41.7774582 100.8409977   3.8569805  40.7579231 101.5690804   3.0076075
  22.7805376  63.1425047  48.5310793  22.8834939  63.9857006  48.0898905
  22.4257731  63.3643770  49.3919754  41.6987801  45.1482201  29.3391132
  42.2393036  44.9798727  28.5672832  40.8558846  45.4307461  28.9842367
  60.7560253  36.2827015  19.7436535  61.1844826  36.7831302  19.0492260
  61.4617586  35.7735395  20.1423097  50.1262283  99.0237331  33.6380482
  49.9295807  99.7416496  33.0362582  49.4526434  98.3681679  33.4570575
  40.2071095  53.6537838  42.1021700  40.0514078  54.2732573  42.8150797
  39.7451878  52.8593540  42.3700190  14.6449113  59.3483448   3.0604723
  15.0823510  59.0150213   2.2770344  13.7120748  59.2255545   2.8844899
  39.9002767  26.9404054  32.4948621  40.1025152  26.3654280  33.2329226
  40.6075478  26.7845273  31.8690014  34.9696875  73.8242054  25.7164216
  35.6766963  73.1888676  25.8291721  35.1905441  74.2874289  24.9084139
 104.5746539  41.3994806  78.7636853 103.8951895  42.0655267  78.8683451
 104.9069665  41.2550657  79.6496547  37.6797605  29.0954423  18.6186814
  37.1012378  29.6871233  18.1375802  37.1058750  28.6585164  19.2479551
  18.0842757  22.4965215  51.7035580  18.0257273  21.9187522  50.9426451
  17.4427438  23.1856370  51.5309668  36.8189597  44.8107910  56.3009405
  37.2028399  44.9599314  57.1650124  36.6809678  43.8644648  56.2602568
  34.6108079  38.8567448   6.8165785  33.8238168  38.6848617   7.3336208
  35.2202392  39.2599702   7.4348319  34.7955751  85.8813953  17.1017146
  34.5756412  85.4662895  16.2677193  33.9600945  86.2106895  17.4330366
  39.3859982  68.5478354  10.3217661  38.7889409  68.8089228  11.0228980
  40.0611019  68.0314207  10.7619739  48.0048418  77.2305870  34.4623327
  48.7219906  76.9347620  35.0230598  48.3727407  77.9644966  33.9701319
  21.8688846  75.1233482  62.6339436  21.6093063  76.0366774  62.7551079
  21.7137814  74.7152424  63.4857798 107.6531021  61.1740971  14.0345812
 107.4188785  62.0395947  14.3696702 107.7691190  60.6371260  14.8184383
  16.3628030  52.4883938  40.7168102  17.0645833  53.1359816  40.7829142
  15.6882823  52.9189587  40.1915789  56.0707235  74.8033285  74.4502592
  55.1658916  74.8525286  74.7586298  56.0343075  75.1233673  73.5488844
  37.6737332  83.2148266  43.7406492  36.9456697  83.2539272  43.1204653
  37.6356435  84.0495014  44.2076588  17.8225267  64.1727066  56.1772776
  17.7647424  64.2447662  57.1300125  17.7125835  63.2383919  56.0006380
  23.5566711  76.8338108  21.6157031  23.1087995  76.3334799  20.9335685
  24.4401336  76.9686317  21.2728500  44.8464251  59.3908358  24.3354583
  44.4355679  59.9089003  25.0275850  44.4785261  58.5136557  24.4424081
  32.2223401  50.2636433  38.4384847  32.1245360  49.3118286  38.4116936
  31.7217207  50.5771542  37.6852775  55.8274937  25.0599813  51.9720411
  56.2269115  24.4901800  51.3147593  55.4724121  25.7931685  51.4694643
  23.6281943  54.2317438  21.6410828  22.8857780  53.7908268  22.0541716
  24.3044281  54.2475843  22.3183489  17.8013504  97.4409866  38.9789462
  18.0004406  98.1815243  38.4060597  18.6217391  96.9505119  39.0302253
  48.1764603  60.1007175  57.0057392  48.0403233  59.6428061  56.1762714
  47.4821854  60.7591200  57.0326042  47.9948854  80.2314377  46.7590332
  47.2316837  80.1051807  47.3227835  47.8430367  79.6474218  46.0159969
  33.3017707  42.4760246   9.3323988  32.4953198  41.9604731   9.3408573
  33.8092494  42.1149683   8.6055315   7.4395478  46.8242884  46.2582016
   7.9853368  46.9907713  47.0267248   7.0825630  47.6819706  46.0276127
  22.2209597  57.3558235  50.6639862  22.9687190  57.9469490  50.5764723
  22.4014211  56.6481066  50.0452757  18.2044959  32.2712159  37.2010207
  18.3443248  33.0235338  37.7760839  17.6667678  31.6713071  37.7179241
  33.5252070  57.5649166  38.5224056  33.4987140  58.4875298  38.7760115
  32.9251862  57.5035000  37.7791476  15.6261014   9.1590660  75.6949365
  16.3881301   8.6766927  75.3742326  15.1387929   8.5193603  76.2141073
  36.1274695  43.5468197  37.7423739  35.7246184  43.6056471  38.6086774
  35.7768440  42.7379084  37.3696113   3.6694192  12.8980653  91.9207001
   3.3916568  12.1374147  91.4103131   3.9807033  12.5307052  92.7479727
  60.4717037 104.6433800  74.2351783  59.5193860 104.6549290  74.1393078
  60.8004138 104.9810188  73.4020031  36.7128134  49.3995142  29.3843222
  36.5172505  50.2575874  29.0078878  37.4033356  49.5706558  30.0247288
  64.8877478  46.7502260   4.6551311  63.9535236  46.5875673   4.5247698
  65.0462914  46.5161896   5.5696380   0.6759309  24.5145433  85.5115038
   0.4686832  25.2579658  86.0777212   0.5215644  24.8388832  84.6242571
  43.5172367  60.0966120  12.3898363  42.7042103  60.3839016  11.9742799
  43.9820957  59.6196890  11.7023230  36.9352508  52.2777700  27.9218364
  37.0242429  53.0709743  28.4501767  35.9910464  52.1295547  27.8694677
  35.7515693  47.2072458  34.9805760  35.0925183  47.5892782  34.4009805
  36.5683150  47.2636890  34.4846201 111.4427397  22.7130334  85.2148199
 111.9407795  23.1896989  85.8788836 111.5500257  21.7915409  85.4505635
  68.6351538  44.7083902  17.1231997  68.5180473  43.9101934  17.6383698
  69.4285583  45.1087332  17.4788249  55.3636456  75.7700968  47.1700239
  54.4244671  75.9325886  47.2581959  55.4296541  75.1205158  46.4700794
  63.2603121  50.1491404  22.7357912  63.4361553  49.2089605  22.6986957
  64.0795708  50.5339241  23.0472231  41.6867495  62.2428608  24.3038297
  42.3208380  61.5264034  24.3329716  41.5650129  62.4923754  25.2198815
  15.6422389  58.3451986  29.5020437  15.3920722  58.1193018  28.6061525
  15.6205082  57.5126791  29.9739313  87.2672555  95.0513237  91.3058658
  87.8323695  95.7837170  91.0599310  87.8689095  94.3189400  91.4395212
  42.4826622  36.3286614  26.7763638  42.2514057  35.4951882  26.3663936
  41.6607094  36.8184471  26.8034863  37.1658516  50.8188772  12.8253806
  37.1160603  49.8878527  12.6086998  37.7511477  50.8577776  13.5817838
  48.3498812  38.3749437  62.0149803  48.3754730  38.4379816  62.9697561
  49.1578007  37.9168105  61.7834520  30.7074714  62.6140499  48.7557745
  30.4500484  62.7338791  47.8416586  29.9023509  62.7600956  49.2524481
  21.5916491 103.4023190  60.8462048  21.7440844 103.4242153  61.7909384
  22.4311447 103.1317616  60.4743481  27.1951365  94.9493599  61.6488409
  27.1350241  94.3313980  60.9203243  27.2191548  95.8103275  61.2312412
  30.1718760  49.8750067  35.9107065  29.4257116  50.3924990  35.6079340
  29.8830295  48.9663076  35.8266377  50.3960133  48.8944340   2.5116584
  49.5657444  48.7646627   2.9699636  50.1466465  49.0260696   1.5969351
  48.5256863  35.3776240  52.3691940  47.6733637  35.4716730  52.7945471
  48.8051891  34.4883990  52.5868893  29.1353655  51.8041372  42.1459341
  29.6804309  51.1675596  41.6834354  28.7285328  52.3211098  41.4506245
   8.3653098  49.6436405  23.2035398   7.6896155  50.0233603  23.7652183
   8.6460590  48.8543892  23.6666751  -0.1022545  58.2107210  56.3400030
   0.4950335  57.4654341  56.2765789   0.3535308  58.8356209  56.9039106
  31.3136649  87.5492573  24.2104626  31.7281342  86.8358803  24.6957922
  31.0913563  87.1646404  23.3625937  32.5287175  38.9627862  18.1143796
  33.3917093  38.7349916  18.4601915  32.0542288  39.3148756  18.8674581
  12.7313173  62.6760387   9.0383035  13.3507621  62.1040726   9.4914836
  12.4817383  63.3265781   9.6946132  60.1578426  45.0039387   9.5113856
  59.7686052  45.6823730   8.9596140  60.4328680  44.3237829   8.8965833
  76.0698053  97.7536553  92.0569018  76.9888636  97.7944677  91.7925155
  75.9239098  98.5656851  92.5422379  32.9653192  73.1938982  54.9295759
  33.7054825  73.6672640  54.5496845  32.6267958  72.6613045  54.2098713
  36.6842675  76.9340324  53.9265776  36.4981270  76.4141607  54.7084475
  37.2007179  77.6731825  54.2477703  43.5054064  54.3868637  21.8546963
  44.1121483  53.8364983  22.3498631  43.1251812  53.7978840  21.2029600
  39.6905231  54.7275162  22.4253249  40.1086044  55.1795530  21.6924524
  40.1202345  55.0836754  23.2029676  44.6573544  55.6747675  33.3861232
  44.8967409  54.7945642  33.0960083  45.3979683  56.2224531  33.1258154
  44.7752094  63.2308435  44.9595785  45.6239176  62.8077793  45.0897217
  44.4690466  62.8989315  44.1155815  27.1331453  62.5141001  38.7878704
  27.8993702  62.2640800  39.3042231  27.2247338  62.0241117  37.9707074
  78.6976287  94.9585312  86.7158693  78.0271670  94.3631952  87.0509649
  78.2214638  95.5543154  86.1374736  31.9806600  58.8012362  30.1343489
  31.9476175  57.9914045  30.6435800  31.0629177  59.0209866  29.9740624
  40.6768560  60.0866747  11.8669164  39.7892261  59.7678137  12.0302284
  40.6623173  60.3794575  10.9557092  33.8755178  51.4167166  42.1758366
  34.6151686  51.7944622  41.6999626  33.2729244  52.1495295  42.3026991
  38.3023238  63.9484262  41.2321472  38.5646868  64.1397142  40.3316975
  38.2024837  64.8084402  41.6403580  81.2385031 102.9213112  91.7490360
  80.4347512 102.4253910  91.5932137  81.0540053 103.4356897  92.5349168
  35.6484604  54.6774817  49.2910624  35.0966692  55.4433918  49.1324902
  36.2615633  54.9603224  49.9695396  54.5753336  49.0824986  21.8365741
  55.0378656  49.9130487  21.7248368  54.4957161  48.7314796  20.9496260
  51.7759085  50.4859257  82.1816349  51.4703751  51.2463617  82.6762199
  52.7008963  50.6655979  82.0132732  13.5890222  64.6732903  84.8299313
  12.9704094  65.0547075  85.4528809  13.1541169  64.7533655  83.9809990
  45.7530975  46.5049648  28.8524342  46.5634155  46.7515373  28.4065413
  45.8794546  45.5858374  29.0879583  93.2259439  63.3339548  32.9204988
  92.6897882  63.0138159  33.6459494  93.3111750  64.2735577  33.0821085
  44.3813658  57.1628284  13.2369936  44.7746849  57.6489592  12.5122809
  43.5700274  56.8071556  12.8744233  19.0639174  79.8896694  56.3290596
  18.7743628  79.6447659  57.2079325  18.4693146  79.4225454  55.7421398
  47.4930859  65.0365496  11.0107553  47.2169113  65.3512859  11.8715107
  47.2709465  64.1054869  11.0135794  39.4559717  60.3270721  27.0345187
  39.8484397  60.0281572  27.8547931  39.8655748  59.7839308  26.3611245
  18.8457990  46.5726566  45.8523607  18.9837825  46.0098171  46.6141987
  18.1716597  46.1239576  45.3420305  30.7760453  26.5178180   6.3542140
  30.9730601  26.0297942   7.1537459  30.2085519  27.2323322   6.6434371
  59.8739338  86.0386276  39.5080733  60.4451895  86.0951805  40.2740383
  60.4308128  85.6736469  38.8203907  34.5590544  57.0758820   1.8022765
  35.1676750  57.7485514   1.4967737  34.7339392  57.0029497   2.7405348
  36.5697169  57.0066452  33.7668896  36.8033123  57.9303455  33.6750102
  35.8032680  57.0093107  34.3402839  27.5948763  87.8818512  68.8243055
  28.3388901  87.5589848  69.3326712  27.6860189  88.8344765  68.8449478
  26.7574978  67.8032160  22.6349330  26.6153693  67.8698540  23.5791755
  26.3733053  68.6038923  22.2778010  38.8380575  60.3388453  45.2330399
  37.8909588  60.4476881  45.1470709  39.1874313  60.5994511  44.3808365
  23.1248331  62.6200247  54.4554663  23.8594794  63.1791878  54.2027617
  22.4818492  63.2232428  54.8282051  43.3826351  52.5934076   9.4084466
  42.6662493  52.3317957   9.9868786  44.1154289  52.7685070   9.9988550
  42.0376062  73.8048983  26.4927077  42.6488018  73.5941887  25.7868242
  41.8948221  72.9720879  26.9424582   8.3373678  54.5397997  41.2847328
   7.7887219  55.2179575  40.8906269   7.7178174  53.8740921  41.5834284
  35.2224541  50.4528189  38.8351250  35.4748440  49.5762348  38.5450816
  34.2665839  50.4558039  38.7847614  24.5957565   7.0738256  32.0513439
  24.0533900   6.4031553  32.4663997  24.8513937   7.6531625  32.7691507
  33.3722568  37.7734947  64.2408037  33.4250021  36.9716144  63.7207699
  32.4818444  38.0940318  64.0970898  76.6305113  68.0705118  15.7489073
  75.8312225  68.1048536  15.2233660  76.5221357  67.2948980  16.2992823
  38.8891411  48.4092045   7.9369426  39.3227553  47.6274109   7.5948739
  39.1704988  48.4587812   8.8505131  30.0654411  45.1247358   7.3074800
  29.2488837  44.6749496   7.0903194  29.8628545  45.6186247   8.1019998
  28.9295530  50.3694248  52.3607063  29.5412040  49.6368027  52.2873831
  28.8488126  50.7043266  51.4676523  40.7231712  53.2873869  55.0918531
  41.4061880  52.8747129  54.5632505  39.9354577  52.7759409  54.9070215
  29.4146419  69.3538046  12.6652455  28.8262463  68.9079142  13.2745111
  28.8454413  69.6466351  11.9535601  31.4444613  59.9930668  35.8826232
  32.3837948  59.8586702  36.0083914  31.2719107  60.8525705  36.2669611
  -0.2333761  10.5970542  87.1300388   0.4703330  10.5297534  86.4846719
   0.2094649  10.8415477  87.9426566  27.4799371  47.3254395  23.4690785
  28.2129788  47.9294968  23.3507800  26.8311954  47.8293943  23.9604020
  36.3630748  58.0083084  14.1889787  35.7717013  57.8595591  14.9268031
  36.3011074  58.9480782  14.0180421  60.0136852  63.6634016  20.2274442
  59.1750956  63.2020426  20.2395558  60.5593777  63.1848335  20.8514833
 103.4448240   8.0769413  65.4010403 103.1447003   8.5593336  66.1713994
 104.0582511   8.6719291  64.9698460   0.8296174  72.3473358  22.4120736
   0.9304516  71.6041327  23.0068135   1.4617404  72.9935074  22.7268958
  28.2768178  15.7869828  47.8098440  28.5763907  15.8683932  46.9043827
  27.3305750  15.6613195  47.7386808  39.8241925  55.6729412  29.4650507
  40.4591560  55.5316687  28.7628436  40.2644730  55.3555727  30.2535057
  74.9317619  89.3980473  76.4267898  75.4954025  89.8384898  77.0628321
  74.5384976  90.1098650  75.9219218  44.7942829 101.6165352  46.9104481
  44.0913057 102.1903419  47.2150803  44.7622347 101.6843414  45.9561920
  58.0371523  73.2920122   4.8825905  58.8907337  73.6945534   5.0425571
  57.7422142  73.0045223   5.7466465  55.3801012  71.2574339  25.1063108
  55.3984976  70.8265066  24.2517948  54.4603109  71.4866877  25.2391911
  52.2759438  33.3166718  42.8114796  52.0232201  33.2214284  43.7297869
  51.6627979  32.7569532  42.3350334  37.7424788  46.8156242  42.7425814
  37.4881077  47.1108675  43.6168575  38.1399918  47.5856161  42.3359823
  19.7116983  70.0365257  52.8853893  18.9986682  70.0383711  53.5239935
  20.1177597  70.8984423  52.9772854  21.5978408  23.7459016  66.1291361
  22.4246764  23.9657164  65.6998873  21.3784909  22.8760457  65.7952690
  83.2248306  23.8407540  12.3730934  83.3024979  23.1663704  13.0479300
  83.7481976  24.5711422  12.7030241  24.4670820  72.0105886  35.3586745
  24.9293208  71.2196398  35.0812316  24.9366784  72.7255583  34.9291134
  34.2869592  60.2332020  61.1964464  33.5458374  60.0132465  61.7608833
  34.0475440  59.8816824  60.3389215  28.4034634 101.0488129  44.6951103
  29.2306328 100.8516788  45.1346111  27.7947569 100.3863335  45.0219536
  95.6444941  73.5878658  13.0611110  96.4023982  74.1684866  12.9925931
  95.1234613  73.7811661  12.2817576  43.2226324  78.2393312  16.5133691
  42.8579044  77.5779295  17.1013725  42.7353716  79.0372276  16.7187262
  28.0399561  51.4116049  35.4829192  27.8747129  52.3516607  35.5551672
  27.2052312  51.0432434  35.1934719   3.0594054  64.7666836  54.1693258
   3.1104395  64.8098087  55.1241875   2.5584108  63.9705849  53.9919567
  74.8915595  20.7088678  73.7623537  74.4031615  19.9098794  73.5640586
  75.2859839  20.9618537  72.9276932 104.4794533  10.3785484  76.9356692
 105.0172064  10.3004043  76.1476672 104.9427531   9.8608272  77.5941158
  16.8084931  42.7467394  26.8682146  17.4330592  43.4564066  27.0182896
  17.3218048  42.0629168  26.4379454  68.5712430  94.6808594  87.9497156
  68.7045190  94.0519684  87.2405142  67.6413342  94.9026316  87.9015726
  27.8206420  84.9251080  51.1343956  28.7262869  85.0711918  50.8610868
  27.8937721  84.5121956  51.9948578  73.9687395  49.8348713  35.6655979
  73.6513805  50.6142521  36.1217546  73.3845043  49.1337967  35.9543824
  81.6449830  81.5061706  87.9415575  80.7411811  81.1910337  87.9496572
  81.7709490  81.8946426  88.8072676  49.8206425  35.7347178  59.2321491
  49.4170237  36.5892649  59.0802670  50.7617426  35.9017754  59.1806030
  38.2929111  66.8500376  31.1763859  38.4647584  67.6446199  31.6816974
  39.1584182  66.4697742  31.0262871  50.8492136  70.8261108  50.2243280
  51.3142300  71.5316057  49.7745895  50.5697775  70.2380419  49.5226717
  46.1676598  75.2617836  33.3584595  46.6668510  75.9784985  33.7500668
  46.1311722  75.4765940  32.4263883  23.8037634  39.5985746  17.5305843
  23.0746651  39.1227126  17.9283345  24.1633701  38.9899492  16.8852234
  28.1405306  67.3404312  45.4374361  28.3018255  68.2589102  45.6533432
  27.1931958  67.2362471  45.5265141  60.6814528  70.4662466  23.4404540
  60.3191853  71.0437346  24.1123939  61.6287088  70.5872726  23.5059452
  15.7027924  22.3865151  42.8074265  16.5495050  22.7377534  42.5318480
  15.4944086  22.8654742  43.6095524  10.1968764  16.5841739  89.5723152
   9.4824456  16.7568557  88.9591265  10.9779405  16.5319173  89.0214593
  63.2880688  78.4641981  18.1129289  64.0886068  78.1805515  18.5544240
  62.6233244  78.4683323  18.8016438  39.4013548  62.4044132  19.1520989
  39.5988297  62.0532417  20.0203824  38.6559224  62.9879713  19.2936087
  61.6620493  54.4577599  15.9033227  60.7457304  54.7201061  15.9914589
  61.6244459  53.5281706  15.6782091  83.5011462  44.6066205  71.3010156
  84.0480814  45.3269498  70.9876335  84.1237716  43.9612119  71.6357124
  72.7129316  42.9387999  18.2009947  72.1892309  43.2154465  18.9529479
  72.7763414  41.9878674  18.2901180  88.3492374  94.9681759  19.9491358
  89.0299129  94.5555496  19.4174874  88.4381962  95.9038734  19.7680354
  12.9326272  29.0072799  29.6392393  12.0971751  29.4288230  29.8406148
  13.0645525  29.1709781  28.7054133  19.9402082  41.7176104  43.5768414
  19.0621138  41.4978266  43.8880968  20.3284955  40.8751392  43.3408117
  23.6832380  85.6566238  47.8423500  22.9113555  85.8496666  47.3102236
  23.8353133  86.4579678  48.3433008  55.0266600  72.4919319  10.0111425
  54.9602890  73.1278467  10.7234871  54.7179127  72.9648733   9.2383349
  61.0342026  84.3816090  46.2111092  61.0972881  84.9917793  45.4763079
  61.6026783  83.6516285  45.9657478  52.9117870  95.5766964  32.6325965
  52.6848030  96.3399887  33.1637239  52.4639940  95.7229900  31.7993402
  57.1577930  48.0345821   5.8128452  57.4765396  47.1585131   6.0299522
  56.4399958  47.8827620   5.1980692  51.1577129  60.7310200  17.7018785
  50.7964134  61.5680695  17.9934978  51.7907190  60.4942036  18.3797097
  44.6290493  86.5095139  16.8634558  45.0037432  85.6841660  16.5558207
  44.3070936  86.9369507  16.0698080  72.9994488  71.7668390  25.7113576
  73.1888294  71.0095119  26.2652707  73.3465815  72.5134325  26.1995482
  32.3769069  66.8991804  17.9697311  32.5233173  67.8406286  17.8776932
  33.2527828  66.5307331  18.0851460  57.1526670  40.5044460  24.4246840
  57.2600317  40.0202084  23.6060143  56.9794703  39.8296785  25.0811291
   6.5987653  70.0994158  20.3292990   6.8766195  70.0579596  21.2443471
   5.6425190  70.0820637  20.3683329  74.3337822  29.0216231   4.0786111
  73.3903742  28.9994407   3.9182514  74.5341778  29.9495792   4.2009857
  34.9321580  97.3309803  50.6947660  34.1133499  96.8659019  50.8664846
  34.8101044  97.7188778  49.8282385  51.8361092  79.3726063  24.4209480
  51.4839458  78.8574505  23.6951208  51.7674160  78.7942982  25.1805997
 109.4894458   8.4028148   1.6449496 110.1656390   8.0288600   2.2098871
 109.0927506   7.6462364   1.2131471  70.1575947  77.1121502   9.0688246
  70.9233809  77.5304556   9.4623083  69.4122934  77.4871397   9.5380139
  37.3048400   4.0287654  89.6005464  36.4001559   4.3368833  89.5472840
  37.8232001   4.8258226  89.7111920  54.0349579  88.3026600  35.0573015
  54.5722914  87.5760078  34.7418976  53.6873150  88.7062836  34.2620254
  37.1797919  62.9661226  46.6640759  37.5449491  62.6421785  45.8406973
  37.8676295  63.5232687  47.0283604  34.1118360  72.6285410  39.4890642
  33.3625031  72.6809359  40.0823498  33.8346767  72.0173025  38.8065648
  53.2851315  97.8568172  43.4585714  54.1815472  98.1924438  43.4545279
  52.9338455  98.1222057  44.3085146  34.1539526  71.0021114  13.8455594
  33.8855696  71.1372471  12.9367471  33.4517169  70.4751158  14.2268384
  42.4035072  60.7502842  52.1763611  42.6134634  60.3073025  51.3542175
  42.5511360  61.6780853  51.9930029  84.5748520 106.8021774  38.3460140
  83.7749863 106.2955189  38.2055092  85.2438927 106.1451626  38.5382223
  87.6454449  85.7660484   7.0852000  86.8759537  85.3244972   6.7258298
  88.2524204  85.8277702   6.3476342  40.1903057  83.5409927  56.3494968
  39.3487287  83.4010315  56.7835379  40.4686356  82.6660633  56.0788345
  49.2821121  89.7792435  58.2693052  48.5339546  90.3550625  58.1114531
  49.6741009  90.1117516  59.0767765 108.0714641  57.0791435  13.8788033
 108.1193958  56.8132496  12.9605246 107.3313789  56.5858984  14.2326581
  12.9594611  39.0413587  91.7312124  13.4634351  38.2368391  91.8536440
  12.1174621  38.7461297  91.3846417  31.6292143  66.6074419  11.0320461
  31.9544411  67.3532915  11.5361965  32.4075079  66.0778952  10.8586431
  53.0199051  76.3618135  59.7327137  52.2716665  76.8232727  60.1114273
  53.3088636  75.7661629  60.4240417  76.0172939  48.8633537  26.5242839
  76.3609600  48.2505035  25.8742547  75.3966093  48.3455610  27.0370007
   3.5950616  66.8219900  40.3813267   2.9699135  67.5463104  40.4092312
   4.4394988  67.2407150  40.2145147  32.6395249  64.9244165  41.4283276
  31.8648839  65.4309511  41.6724348  32.6970291  65.0180006  40.4774475
  41.4633465  67.4192286  40.1379395  41.6561317  66.8376589  39.4025183
  42.1814585  67.2728682  40.7536697  81.4505721  11.4972972  24.7433949
  81.9249869  11.7358779  25.5397892  81.7591716  10.6152725  24.5359230
  67.6008463  79.1778946  25.2113962  68.3791351  79.4831038  24.7451925
  67.7139187  79.5028114  26.1046338  54.5584917  91.7551613   9.9909723
  55.4139423  91.7360783   9.5619333  54.2580938  92.6579475   9.8862123
  61.3777685  93.0146122  19.7610867  60.9492445  92.3511410  19.2203367
  62.0248747  93.4152985  19.1806281  71.1694717  65.0035238  19.3775678
  71.2585592  65.0019741  18.4245241  72.0539331  65.1757622  19.7005177
  55.4093456  61.5536261  18.8441086  55.8559895  60.8616066  18.3564150
  54.8310518  61.9645500  18.2014966  53.3711720  54.6061563  22.8928065
  52.8111839  53.8321733  22.9528141  54.1961622  54.3367815  23.2966137
  45.8187675  74.4775343  20.7763290  45.0187874  74.9151707  21.0674262
  46.5253878  74.9595833  21.2059236  46.8578196  94.9306488  38.4665871
  47.6597834  94.9325562  38.9891624  46.4164925  94.1163254  38.7081361
  65.6188536  81.9761944  24.2094278  66.5220022  82.2435665  24.0389395
  65.0861788  82.6228714  23.7465072  50.6743622  96.4439011  36.5858006
  51.0970354  95.6924438  37.0016122  49.7719860  96.1602783  36.4391422
  93.8779259  70.8084917   8.1980270  94.2380238  71.2411499   7.4238408
  94.4387150  71.0989428   8.9173228  42.0750380  67.0634651  29.3215013
  41.5575218  66.5778399  29.9638247  42.2710371  67.8957558  29.7517443
  48.3484840  91.9762421  28.5926318  48.2173634  91.1263752  29.0130639
  48.3059597  91.7886925  27.6549506  22.0582414  55.2475691  32.0460606
  22.6085210  55.9948158  32.2806835  22.6687002  54.5138168  31.9740772
  35.5051780  91.9750214  28.6905003  35.6358552  91.1374664  28.2459092
  35.3159857  92.5937080  27.9850435  63.4148169  81.1290359  28.4742880
  64.1937923  80.6877232  28.8129187  62.8354645  80.4172516  28.2023692
  45.2946091  61.6392946  19.7156191  45.8845234  61.6883087  18.9634025
  45.1815367  62.5490236  19.9910021  22.1607041  42.7651072  46.1510038
  21.6001725  42.0198441  45.9350872  22.7995706  42.7985048  45.4389906
  59.3096685  83.0727482  13.4477162  58.8073587  83.8669872  13.6296737
  60.0786686  83.1408024  14.0136099  36.4780188  71.3839960  31.1815333
  35.8148837  70.9521198  30.6430531  37.2976136  70.9486008  30.9471655
  31.3818026  78.7729216  47.7781010  30.7443118  78.9245796  47.0803642
  30.8662558  78.4117317  48.4992027   0.4871227  77.1451521  38.2459664
   0.0149585  76.4008093  37.8728104  -0.2008484  77.7436352  38.5370684
  82.0721817  79.2370176  48.2205677  81.3009644  78.7862873  47.8766203
  82.0683384  79.0377951  49.1567993  73.1403875  84.5802975  40.6390333
  72.5170040  84.4823074  41.3587761  72.6177263  84.4424820  39.8490548
  60.4580593  83.6874390  58.5204458  60.4019642  84.6273708  58.3483744
  61.1810875  83.6004066  59.1416454  63.4969187  75.8761358  37.6603889
  63.6306906  74.9384499  37.7984977  63.5274172  75.9849882  36.7098880
  75.2963591  90.2140617  17.4344993  75.2855253  90.2807903  18.3893085
  74.5241594  89.6897507  17.2222710  66.7128658  87.7845669  52.8641415
  66.1133242  88.5058594  52.6730585  66.2939548  87.0159340  52.4769115
  47.8412866  28.7876241  81.2332690  48.2481431  28.7002580  80.3712571
  47.7679967  27.8893487  81.5556860  18.8981974  99.0959549  70.9480333
  19.7197807  98.6722851  71.1964989  19.1516280  99.7417831  70.2885532
  51.3355220  15.6247043   6.5967923  51.9911946  16.3138294   6.7037338
  50.4976333  16.0692977   6.7252880  78.7450838  80.5406952  88.1428719
  78.0886078  80.6367111  87.4529076  78.2349348  80.4396343  88.9464760
  49.0823412  70.7042360  10.9630489  49.5274067  70.1919699  10.2879691
  48.5026026  70.0775719  11.3959730  50.9073591  69.4747019  21.6705632
  50.0837231  69.6550751  21.2174463  50.6846523  68.8012123  22.3132467
  55.3527499   0.4474639  44.7767591  55.1709081   1.3872337  44.7764444
  54.4999112   0.0384330  44.6297979  81.9938374  81.0030365  11.6903961
  81.6228962  80.4887676  10.9733403  82.8904057  81.1900711  11.4121807
  66.9844961 106.6516399  21.9607067  66.7916393 105.7143402  21.9832015
  66.1594820 107.0718193  22.2036624  42.8824425  97.4217033   5.7071632
  42.5878096  96.6015816   5.3111523  42.1291208  97.7281094   6.2119925
  65.6016493  70.4091740  38.1114197  65.3633118  70.7193661  38.9850378
  66.0918570  69.6023083  38.2692170  85.7057000   6.8231773  30.9251070
  85.1177264   6.4649295  30.2601385  86.0248090   7.6423168  30.5464125
  58.7689447  77.0076942  41.7189550  58.4139442  76.3121843  42.2725487
  59.3981457  76.5636778  41.1504602  69.0684462 100.9754658  35.0447726
  69.5489359 100.1479912  35.0702310  69.7413397 101.6385078  34.8904204
  66.7787100   0.7217121  17.4059176  67.2938896   0.1582050  17.9832184
  66.3769270   1.3623905  17.9927158  55.8037138  73.0073118  56.7626429
  55.8491850  73.2101488  57.6970005  55.5271626  73.8269377  56.3528061
  53.4231138 105.9194851  23.1327438  53.9058495 105.2230358  23.5778880
  53.2024956 106.5398312  23.8275337  58.1042194  36.8616223  33.2315779
  58.4735489  36.2566638  32.5882626  57.5746346  37.4679399  32.7137446
  80.1777172  81.9642067  34.8392296  80.2960014  81.2545776  35.4706240
  80.6494141  82.7048779  35.2202058  42.2702646  76.6612434  27.2670960
  42.3131561  75.7923412  27.6663446  42.5581074  77.2570944  27.9587150
 112.6877785 101.1884212  35.6877780 111.8869114 100.7050323  35.4848218
 112.3913383 101.9356823  36.2073565  64.9215841  99.8727894  30.3008032
  64.8410559  99.6792889  29.3668318  64.0183210  99.9272156  30.6128764
  70.3393602  73.0236387  11.2180626  69.9333096  73.4574699  10.4676306
  71.0454607  73.6133528  11.4824247  80.5106640  99.9781322  17.1004820
  79.7837639 100.4176617  17.5416851  80.1704788  99.7665501  16.2311506
  90.7127190   7.6530361  47.1035862  91.1217690   6.9911289  47.6610661
  90.7786179   8.4643363  47.6072598  92.1499538 103.0495167  55.5298281
  91.8683720 102.1369648  55.5946445  92.2281265 103.3411503  56.4381599
  68.9100170  77.1009445  60.5443764  68.6637449  77.9886150  60.2843285
  69.3963909  77.2167349  61.3606262  14.7672366  37.2562997  92.0760365
  15.3936862  37.5565164  92.7345724  14.9766254  36.3307397  91.9506575
  94.1780281 105.0403690   5.6018853  93.9186001 104.7519398   4.7268218
  94.8371887 105.7166100   5.4455608  14.7075605  35.4137056  78.3625925
  14.9959182  34.5678346  78.7055123  13.9220332  35.2109926  77.8545678
  63.8402748  96.1051178  11.8404293  64.3430376  95.2919102  11.7939913
  64.2830372  96.6955853  11.2308884  90.0123978  63.5302448   8.9521879
  90.5781364  62.8721571   8.5483271  90.3759670  64.3676853   8.6645395
  29.6729758   8.7393188   6.6251558  29.6272948   8.1336021   5.8853906
  30.5487444   9.1214179   6.5681303  86.3058711  15.4589176  11.3472223
  86.7825271  16.1885833  10.9514773  85.4137708  15.7876682  11.4581919
  22.2138834  68.0255842  48.8699055  21.4330745  67.9131603  49.4120598
  21.9098878  68.5267019  48.1131363  54.6403551  80.4752350  50.7011271
  54.4173288  80.1872158  51.5862989  55.4988098  80.0870132  50.5320978
  84.9901390  69.6511984  21.1378074  84.2611694  70.1608038  21.4915538
  85.7496452  69.9343443  21.6469383  77.7080727  83.0483150  27.7593470
  78.2912350  82.8156471  28.4818578  76.9285011  83.4041309  28.1858373
  51.3022518  95.8355999  43.5962057  51.7090321  94.9780846  43.4719658
  52.0237732  96.4581966  43.5066700  67.5692440   8.5789489  31.5585899
  68.1274272   9.2803478  31.8943048  67.2040225   8.1677627  32.3420238
 112.9699708  26.4343643  87.3473549 113.8323260  26.6399764  87.7083302
 112.4161912  26.2936973  88.1153202  48.0250311  95.6925583  35.9132457
  47.6897764  95.5660057  36.8008375  47.5316143  95.0695324  35.3797531
   5.6138851  72.7875280  29.0580821   6.1928417  72.0752764  28.7865376
   4.7812416  72.3579121  29.2539501  90.6651115 103.6824512  44.1128016
  89.8570442 104.1480923  43.8973093  91.3368225 104.3641472  44.1308737
  13.5142519   1.9637870  52.1783352  13.3785632   1.1195278  52.6084948
  13.6598780   2.5783920  52.8975677  76.9314337 105.3814602  61.8429613
  77.5218105 104.6443939  61.6866636  77.0509100 105.5918121  62.7690887
  83.7196445  72.4051046  61.5939999  83.7740803  71.8024540  60.8523273
  84.2282867  71.9809484  62.2850943  67.1661377  66.6998672  50.1350021
  67.3527050  67.3913288  49.4999361  68.0175495  66.4921236  50.5199337
  70.0338268  92.9643154  17.1798003  69.4488096  93.4034348  16.5624213
  70.9096336  93.2605839  16.9319820  85.5651093  87.6057053  29.9326563
  85.8002949  88.5311031  29.8651552  86.2297821  87.1512699  29.4150376
  58.9010954  93.7465572  39.2667866  59.7530556  94.1764259  39.3417311
  59.1003370  92.8112125  39.3076921  96.7729092  84.4800568  70.6806564
  96.4339066  83.7553501  70.1551962  96.1657906  85.2011204  70.5141783
 113.2522961  97.9983347  89.5723766 113.5580298  97.8958433  90.4736275
 112.7168748  97.2214144  89.4112751  43.9959240  99.6264744   4.2191818
  44.6551514  98.9909267   3.9403781  43.4818649  99.1637230   4.8808706
  63.9597584   9.4443893  40.9259129  64.0586687   9.8304080  40.0556040
  64.2970873  10.1116180  41.5236139  91.8001556  88.2304859  11.5585315
  91.3103104  88.3219051  10.7412612  91.8879890  89.1254425  11.8865156
  45.8604670  77.2900009  18.9473796  45.9536552  78.2191992  18.7372756
  44.9434137  77.0922565  18.7572575  84.6780109  44.4221306  11.2512946
  83.8184929  44.5514870  11.6522026  85.1724815  43.9222860  11.9008231
  79.5371866  77.3721981  30.2320528  79.9292994  77.8838873  30.9396219
  80.0194550  76.5453959  30.2386904  73.5543251 101.3037872  17.9169130
  74.1106176 100.9598446  17.2180057  72.9340410 101.8785191  17.4683928
  92.8733207   9.8685264   5.2637273  93.0292655   9.9516296   4.3229797
  91.9216872   9.9182510   5.3540683  94.3399715  90.5588245  40.7105160
  94.3281460  91.1737156  39.9770403  94.8938656  90.9803867  41.3675642
  63.5663080  84.8614025  41.6600752  63.9321041  84.6606731  42.5215435
  62.8001976  84.2922783  41.5866375  43.2185173  92.4820042  38.9152145
  42.4714279  93.0458164  39.1157079  43.3779287  92.6186943  37.9813313
  48.6891270  95.2499676  59.6389818  49.1595125  94.6043301  59.1116047
  48.3711100  95.8919144  59.0041542  46.3848114  73.0902576  37.9069304
  45.8149910  72.3217154  37.9366612  47.1745968  72.7857018  37.4600315
  12.4289229  14.7651481  14.2517543  11.8936255  14.2583846  14.8623908
  12.9373076  14.1079330  13.7765348  66.8270779  57.2917891  23.8316751
  66.6608286  56.3875628  23.5652852  66.6688728  57.2963047  24.7757006
  75.1983429  13.8940620  11.8384135  76.0702158  13.5116863  11.7391181
  74.9499083  13.6928653  12.7406526  84.3530846  94.7451305  37.2065091
  85.2390003  94.6901989  36.8482232  84.2201519  93.9054489  37.6463985
  66.9714451  77.1698380  14.8317742  66.9710016  77.7847099  15.5653727
  67.0434999  76.3078880  15.2417517 106.3693044  24.0753238  77.2256017
 105.7197378  24.2028205  76.5341974 106.1324046  24.7144716  77.8976143
  87.9342557  28.0361366   9.5407081  87.5714732  27.7022743  10.3611672
  88.1031371  28.9624595   9.7128940  83.9282227  70.3883600  26.0734129
  84.2038631  69.5698547  25.6607294  82.9718494  70.3488541  26.0685253
  77.3587418  86.9342995   3.7346351  77.3666191  86.0699558   4.1458297
  76.6488123  86.8884087   3.0942246  21.0068800   6.7564010  24.9808502
  20.8966067   7.0820331  24.0875220  21.7097666   7.2935104  25.3465009
  87.1966934  95.8444691   7.1695870  87.9543209  95.6812954   7.7313733
  86.6851902  96.5012455   7.6420730 113.1828118  13.4125900  54.5424557
 112.2515393  13.2434177  54.3998241 113.5851193  12.5441074  54.5532036
  44.1603136  68.6664009  12.3589051  44.7533083  68.5549164  13.1019807
  44.6281433  69.2536020  11.7651355  75.8650255  64.4060946  52.6856422
  75.6047630  65.3067207  52.4923229  76.7110252  64.4904184  53.1254244
 102.8997562   3.2512300  83.4205377 102.0937274   2.7352922  83.4017068
 103.3996007   2.9422824  82.6649344  51.1127472  81.6786861  25.3019691
  51.2012577  80.7451439  25.1098776  51.1460018  82.1037579  24.4449735
  42.3395157  89.2618942  29.7861791  41.8378830  88.6526299  30.3278327
  42.7276707  88.7129021  29.1048717  44.9573138  11.1266231  32.5394416
  44.9911692  10.4204082  33.1846833  45.5703547  10.8561229  31.8558908
  82.8514862  67.0673609  21.4857888  82.5188065  67.2768688  22.3585200
  83.7207603  66.6987276  21.6429567  73.5193539 100.0136948  57.6727581
  73.9583683 100.7258129  58.1379318  73.1260824  99.4821072  58.3648491
  30.7127713  46.7172830  85.8931166  29.9354505  47.0189016  86.3632578
  30.6957196  47.2007101  85.0671399 111.5941525  17.7311325  49.6689272
 111.7459727  16.9665431  49.1134119 112.1262742  18.4226131  49.2753220
  75.2467871  77.2691011  17.7774048  75.9364796  76.6350317  17.5811589
  75.6890488  77.9583549  18.2729518  39.4488740  79.6195030  37.7152514
  39.7974324  79.7023010  36.8276238  39.4454885  78.6773634  37.8843260
  21.2481784  49.7184961  92.2041785  20.4086160  50.1781766  92.2123823
  21.2266397  49.1947095  91.4032962 106.1248828  19.6818447  26.8419242
 106.1743689  20.5701827  27.1949697 105.1965094  19.4546508  26.8943334
  31.5389967  89.5792675  67.6473904  30.7328010  89.3442822  68.1068039
  31.6335273  90.5201912  67.7955198  53.6447859  78.6067247  21.0044909
  54.4500303  78.8028955  21.4833760  53.7918186  77.7359438  20.6352234
  92.6596404  15.0081920  25.1555061  93.0392695  14.8133945  24.2986703
  91.7648650  14.6722602  25.1030087  92.5264645  97.5453854  41.5232515
  93.0976391  97.9164791  42.1957684  92.7083206  98.0657959  40.7407331
  54.0852070  76.6373205   3.7883878  53.1356525  76.5180492   3.7697485
  54.4325399  75.7651138   3.9750528  88.8371135  21.0494232  22.6784205
  88.3129407  20.3262233  22.3342562  88.2236434  21.5592956  23.2074904
  77.1396446  80.3792763  38.8168502  77.3203707  79.5032501  38.4760547
  77.8701401  80.9131908  38.5045218  60.9573889  90.5307770  48.4037971
  61.0275221  91.3445759  48.9028502  60.8364391  90.8150673  47.4978256
  81.1955929  93.8881683  16.9221282  80.8120823  94.5899487  16.3961434
  81.9926262  94.2714691  17.2882581  70.2094364  57.3570204  36.1134577
  69.5424080  57.0932674  36.7472887  70.9034061  57.7475834  36.6445899
  89.9398709  22.6705455   3.0197760  89.3927480  22.0615577   3.5157833
  89.7201157  23.5324573   3.3733928  47.4196720  30.7605481   5.5862123
  46.7193174  31.3073659   5.2302235  47.6693058  30.1885366   4.8604602
 105.7214832  70.6780148  15.0812328 104.9200344  70.3564978  14.6682715
 106.4224625  70.1729631  14.6691895  71.6591883  95.2077389   8.0123520
  70.8784199  94.9970055   7.5002682  71.4675617  94.8749828   8.8891560
   5.3307676  43.4431283  77.0725406   4.7856759  44.0455739  76.5664125
   4.7131490  42.8073804  77.4339390   3.4808540  47.9131811  76.0812724
   4.1299962  48.5745924  75.8417344   2.8488254  47.9265611  75.3625262
  68.1388474  97.5372410  28.9114189  68.8541651  97.1109772  28.4393525
  67.5807285  96.8161297  29.2025113  78.4950018 104.0594864  21.5688777
  79.4292879 104.0904427  21.7747450  78.1121397 103.5344601  22.2717285
  58.5984850  88.5784531  13.8260186  58.9676094  89.4432163  13.6466813
  58.8791084  88.3787632  14.7191083  73.9538479  64.2255497  50.3801107
  73.7312889  64.3491364  51.3028383  74.9074936  64.3027449  50.3513288
  55.6268930  67.8426409  18.5959184  56.1335897  68.1197023  17.8325522
  54.8929501  68.4560537  18.6317194  56.8038224  39.0026968  75.4815948
  56.6575383  38.2112138  74.9635220  57.7543973  39.0498941  75.5836165
  60.0492096  86.2629509  10.3843451  59.1512632  85.9790897  10.2130544
  60.5690956  85.4613781  10.3257680  97.0905829  19.5575714  24.4412589
  97.6588870  18.9261913  24.0000916  97.6827336  20.0673198  24.9941993
  74.8049355  80.6100464  48.0347109  74.8898697  80.5596447  48.9868021
  74.1255426  79.9706364  47.8206682  58.5714006 103.4035492  39.6261358
  58.3302832 104.1972542  39.1485071  58.0477428 103.4373665  40.4266787
  43.0237818  87.1007442  28.1962228  42.5387764  87.3778534  27.4189138
  42.7918863  86.1787033  28.3071446  68.6637974  93.2742405  49.5617390
  69.5845461  93.0748177  49.3923664  68.4792423  94.0371037  49.0138245
  85.1954460  68.5630846  28.9443874  85.9610558  68.4560156  28.3799314
  84.6963120  69.2721653  28.5390401  78.3381748  56.2380981  36.3921189
  77.9251194  57.1015596  36.3993502  78.9875650  56.2773561  37.0942473
  42.5430536  65.3397560  16.0479319  42.0426941  65.5419302  15.2573645
  41.8940639  65.3505421  16.7514408  35.1735377  88.4869003  34.9075437
  35.9280562  89.0505981  34.7367191  34.9817276  88.6183262  35.8360744
  48.5127449 105.2666092  23.9770246  47.9043961 105.2143574  23.2398605
  49.3247795 105.5988407  23.5943389  76.0970211 103.9548397  14.8576283
  75.8198547 103.1600761  14.4018197  76.4184093 104.5296192  14.1629612
  69.4461012  67.8940201  18.7717521  69.4175863  68.2914448  17.9014242
  68.9751434  67.0665932  18.6727631  61.1453295  84.8233700  32.4476433
  61.6852760  85.5115604  32.0589542  60.5913687  84.5188999  31.7288542
  66.7077160  73.5805941  19.9665463  66.2352180  73.1505108  20.6792927
  66.7972946  74.4895935  20.2527809  89.6334839  91.9975471  14.9092364
  89.7284889  92.7272892  14.2971241  89.0864658  91.3645077  14.4441903
  36.4524651  71.5968180  11.8645215  36.8719029  71.2335300  11.0845697
  36.3507795  70.8483124  12.4524212  62.3324680  85.7282925  56.6222334
  62.1252680  85.9345722  57.5336838  61.9431019  86.4442158  56.1201572
  59.7043610  95.2238750  51.4287329  59.3003654  94.4418526  51.8048382
  60.0563240  95.6976414  52.1823263  74.8023605  84.8259830  36.0385156
  75.5375433  84.9925423  36.6284275  75.2079296  84.4895172  35.2394319
  49.2906523  73.1137991  36.8739080  49.8874617  73.7110662  36.4229989
  49.8650265  72.5308132  37.3703551 102.4227524 102.6167107  25.7298112
 102.8429127 103.0285358  24.9747682 101.8142033 101.9833469  25.3493524
  72.2366810  83.4662247  35.7837129  71.5879917  83.4979057  35.0805545
  72.9070282  84.0964508  35.5197287  79.6252775  99.7761631  22.2194839
  80.3864670 100.0326347  21.6988659  79.4061756  98.8983250  21.9070554
  72.3677349  77.0217228   2.7532423  72.7332163  76.1569643   2.9399303
  73.0305958  77.4500561   2.2116011  71.3118792  75.9993696  47.0909023
  70.9822702  76.1383629  46.2030554  72.1977854  75.6587410  46.9669056
 100.7967473  11.5142536  17.3166990 101.6464139  11.8700218  17.5769353
 100.8929253  10.5671405  17.4165118  76.4603090  91.9992542  39.8425841
  77.2272301  91.6247272  39.4092298  75.9744501  91.2410355  40.1670551
  81.0765076  82.1467304  46.9232321  81.9167137  81.7571926  46.6812563
  81.0516262  82.9770374  46.4476299  61.3320303  85.2976608  71.3124800
  60.7878876  85.4385567  70.5376959  61.3816357  86.1576080  71.7299318
  92.4538326  78.3505011  18.3204985  92.2985554  79.2794418  18.4913278
  93.3834076  78.2241201  18.5106599 107.7332211 103.7662029  12.8738320
 108.2316208 104.3760204  13.4178483 107.1792221 103.2907486  13.4929132
  56.4432907 105.4947948  37.7163029  55.8591795 105.9377098  38.3318233
  57.0757627 106.1663151  37.4608183  77.1554422  93.5015297  26.1968613
  76.2187624  93.3147621  26.2599802  77.5279522  93.1312561  26.9970942
  75.0679970 106.3797665  28.0738378  75.7322836 105.7290649  28.3008480
  74.2757130 105.8672237  27.9131675 106.8247271   4.4450473  16.6325343
 107.4956132   3.7723731  16.5156412 106.0845090   3.9798831  17.0223129
  45.0938129  76.8222904  56.8463755  45.5019331  76.1127234  57.3425436
  45.4353380  76.7206097  55.9579754  40.8042431  62.7421284  27.0528555
  40.3846455  61.8827057  27.0924377  41.0188580  62.9460335  27.9631281
  37.4507928  79.9551916  21.4853382  37.2774744  80.4542255  22.2835660
  38.1340885  80.4523373  21.0356879  88.9366531  95.2065849   9.3244934
  88.3329201  94.8885250   9.9957454  89.7283459  94.6826553   9.4467658
  21.3629248   7.9764270  47.3223257  20.7473662   8.6344814  46.9993877
  22.2028544   8.2240009  46.9357395  81.0810852  85.3415775  14.9627626
  81.1205864  85.8455276  15.7756007  81.8877506  85.5691242  14.5004368
  96.6695882   4.6559238  55.1410818  96.7622615   4.6362972  54.1885805
  95.7416583   4.8394393  55.2877045  93.4328651  60.9272957  35.5986381
  93.9084148  60.4681301  34.9063635  93.5010242  60.3502989  36.3593364
  26.3784766 102.0583916  13.2879353  25.6730723 101.5417862  12.8983724
  25.9569097 102.5422573  13.9981413  81.5630245  54.4504309  52.6469088
  80.6948185  54.0602922  52.5457048  81.6639996  55.0126028  51.8787956
  67.6476479  81.0139275  57.4270868  66.9351768  81.1502171  58.0516195
  68.3417034  81.6028214  57.7232647  35.9523988  99.8974895  47.8881407
  35.2419734  99.3417168  48.2085276  36.4615989  99.3271255  47.3122644
 105.1807785  78.2609844  35.3026628 104.4470882  78.8408613  35.0985312
 104.9981880  77.4610615  34.8097014  52.2384310  77.1799421  33.6185646
  52.0183182  76.3009119  33.9269280  51.9695663  77.7584267  34.3322158
  40.6600666  59.7008181  34.4523692  40.7087660  59.1090441  35.2031469
  40.0505781  60.3860378  34.7266388  75.0364256  94.0040684  46.0375166
  74.7089911  94.6144295  45.3768587  74.5083761  94.1864777  46.8147707
  92.7674198  94.9249840  25.2145052  92.8450203  94.1230106  24.6977305
  93.3285999  95.5557728  24.7634983  91.1909389  67.7026987  40.4553795
  91.5450382  68.3203220  39.8155475  90.8473778  66.9817781  39.9276686
  41.0673380  97.8357315  42.8307533  41.9964170  97.6712799  42.9920006
  40.7092237  96.9789505  42.5985527  88.3052254  66.2717962  55.3210258
  87.5531101  66.6869497  55.7431650  88.9927197  66.9372511  55.3483963
 110.8417416  99.3877029  19.8304510 111.1189461  98.4725857  19.7863257
 111.3846207  99.7694206  20.5202365   6.9879820  15.2881336  39.9666286
   7.0288851  14.3705367  40.2360392   7.4806216  15.3191566  39.1465211
  46.8163633  79.6906805  39.1450691  47.1965837  80.2690887  39.8062062
  45.8719349  79.8251534  39.2237949  54.4463539  81.5263844  30.3098488
  54.8725462  82.3833275  30.3253531  53.9492655  81.4912796  31.1271000
  48.2441854 100.2224731  41.8919706  48.2452869 100.9154129  42.5523281
  48.7071753  99.4949627  42.3074245  76.1871862  97.9112434  22.6674414
  76.9823503  97.4093819  22.8465271  75.8601952  97.5551605  21.8412948
  60.4782724  74.2443895  24.3016195  61.4012337  74.0004349  24.2318916
  60.0445175  73.4523726  24.6191144  63.5209846  80.9575844  11.4574575
  63.8115025  81.7907619  11.0864413  62.5659513  81.0208225  11.4695776
   0.6498860  88.7092608  91.8009498   0.9038590  87.7864092  91.8095022
  -0.1825334  88.7242239  91.3286288  31.1545873  95.1441765  38.7993622
  31.4757586  94.2606831  38.9796519  31.2509656  95.6083965  39.6308970
  80.1600647  93.5608768  29.5972776  80.8783245  93.6873245  28.9773178
  80.0650215  94.4093704  30.0300217  53.1816149 103.8937855  46.5002537
  52.7904558 104.6536732  46.9312954  52.6959276 103.1453800  46.8469954
  73.7966109   1.3569164  41.1764431  74.0948010   1.0715961  40.3127861
  73.7116409   0.5473327  41.6800213  22.2082376  80.3012943  50.0951815
  21.4967370  79.7785807  50.4650068  22.9865026  80.0215149  50.5771160
 111.7125702  97.5656414  49.0827513 111.6768360  98.4496593  48.7174225
 112.0367146  97.0225048  48.3643103  68.8737774  79.1366243  10.6996405
  69.7158670  79.5588732  10.8694184  68.4787941  79.0332794  11.5654004
  86.5165520  66.5297461  53.1543446  86.0196590  66.2259722  53.9139843
  87.3949623  66.6991186  53.4948587  44.3449783  92.9600430  62.4823141
  44.6897697  92.5649929  61.6815138  44.7347450  92.4464417  63.1897926
  44.0121698  80.9027195  19.9579704  43.8762903  81.3158321  19.1052639
  43.7568665  81.5727329  20.5921149  52.0498610 106.3392353  36.2863398
  51.9222164 105.4879761  36.7050362  51.4614153 106.9287586  36.7579579
  63.2771873  68.3406544  50.5375433  62.5204039  68.6677122  50.0511932
  63.4793758  69.0368938  51.1625242  87.9404068  86.2081718  50.4641104
  88.3404160  86.7475319  49.7819662  87.7071285  86.8290138  51.1542988
  48.9019585 100.6456375  31.2769461  48.0710077 100.1732540  31.2258911
  48.6689472 101.5021133  31.6352654  28.3746982  63.1515932  34.2587352
  28.4285283  63.5827112  33.4058142  28.8277531  63.7461376  34.8566413
  52.1157980 101.8216133  18.1855357  52.5084400 101.4947701  17.3760700
  51.4215136 102.4123001  17.8934824  40.0388908  88.0476189  19.1015279
  40.2317476  87.4268532  19.8041558  40.3086519  88.8967705  19.4514060
  51.0512257 100.9706211  28.4465885  50.5880594 100.3643513  29.0246487
  50.8706856 100.6456661  27.5645208  56.1086607  55.6303310  17.6849127
  56.0101891  55.6104898  18.6368275  56.7204666  56.3483095  17.5223255
  97.8238965  20.9375858   7.8864175  98.4077311  20.2017021   8.0703831
  98.3787919  21.5781307   7.4414283 106.8269634  84.9320126  26.3887477
 107.3481083  85.7149124  26.5668058 106.8015766  84.4659996  27.2244644
  33.4635162  77.3790836  56.7796326  32.5716710  77.3502207  57.1260548
  33.9994836  76.9788504  57.4643087 103.3374023  79.3440151  75.9402609
 103.1488323  80.1252651  75.4203367 103.5216236  79.6790314  76.8177938
  98.1998778  24.0106105  59.4973516  98.8261748  23.3131122  59.3037319
  98.4955407  24.3729400  60.3325319  59.8628330  65.9653711  18.2201910
  59.7104931  65.2369213  18.8221729  60.7124901  65.7741785  17.8230011
  83.9350891  92.8723240  24.7376323  84.5502949  92.8005409  24.0078354
  84.3943024  93.4056473  25.3864217  94.7866202  12.2057151  17.5616324
  93.9650489  11.7162895  17.5202453  95.4166318  11.5855503  17.9286587
  60.2220297  78.8475084  14.6356082  60.2237701  78.0200577  14.1544044
  59.5937014  79.3962336  14.1662121  78.0488301  33.5006332  30.5689216
  78.8240720  33.0004787  30.8240342  77.8210593  34.0044975  31.3502502
 101.8386651   6.8712234   1.1238591 101.1388160   6.6478252   0.5102353
 102.3666573   6.0751724   1.1851116  94.0011502  29.2780780  15.7055223
  94.4202615  30.0317573  15.2901328  94.7294713  28.7333774  16.0039973
  27.4486544  15.0770187  30.2185774  27.6017954  14.5878696  29.4101763
  26.7447760  15.6875514  29.9994135  88.8476944  96.5984726   1.6194667
  88.6869526  97.4712849   1.2608577  89.7845173  96.4537525   1.4866076
 107.2715187  88.7186050  63.3940125 106.3794804  88.4655094  63.6315823
 107.2423649  88.8358784  62.4444723  85.7358790  12.9372882  57.7334309
  85.8613015  12.0934104  58.1674528  84.8561192  13.2114314  57.9924631
   3.3881857   7.5875949  41.4581823   2.5580695   7.8232669  41.8724298
   3.7841275   8.4261989  41.2210941  73.9913082  89.4577217  38.5892415
  74.5494556  89.8237896  37.9031682  73.9440680  88.5234356  38.3864689
  38.5743906   2.4188423  16.6390944  38.3794405   3.1549644  16.0591376
  38.2243922   2.6846504  17.4894357 106.7340947   3.6430072  11.0920954
 106.8153430   2.8749656  10.5266392 105.9464408   4.0882205  10.7796454
  80.9112835  58.0329800  89.5512009  80.3272438  57.6997232  88.8699722
  81.5397739  57.3254871  89.6950245  55.6269741  73.2544231  48.5604763
  55.3013706  74.0691996  48.1779146  55.9970665  72.7733994  47.8202868
  55.5277586  86.1711025  34.0107989  55.9227180  85.3406334  33.7451720
  54.9947691  85.9494591  34.7743630  97.0993377  16.4322376  39.1820335
  97.5268746  17.2095107  39.5416141  96.6509009  16.7470455  38.3971548
  92.8506169  68.4542768  77.2808290  92.5531611  67.9345434  78.0275703
  92.1775899  68.3214586  76.6132772  77.9787970  57.9953432  24.3752003
  78.2619715  57.7560329  25.2576828  77.0982313  58.3511734  24.4944620
  62.7163743  38.6840551  80.3591585  63.6352681  38.4988229  80.5529869
  62.4678849  38.0181425  79.7180224  78.9793348  84.2945671  33.1608629
  79.7178125  83.6992931  33.2894278  79.2326880  85.0937653  33.6227489
  70.4743576  76.8518686  24.8148370  71.4072704  76.6609144  24.9119854
  70.0934029  76.0316944  24.5011163  44.8532486  98.6975002  46.0308838
  45.1255035  99.4723415  46.5225458  45.6707525  98.2420349  45.8296871
  54.8147297  95.4842567  67.9052258  54.7659779  95.7377338  68.8269663
  55.1266527  96.2703133  67.4568367   5.6916144  14.9863529  36.8073702
   6.2337973  14.2413997  36.5479088   6.3030341  15.7209777  36.8594170
  41.8405726  16.5499401   6.5692109  41.4011099  15.9101867   7.1294010
  41.1565974  17.1803092   6.3432866 111.7232896   3.3407497  69.1774464
 111.8633366   3.3488368  68.2305813 110.7717133   3.3183860  69.2786312
  15.4760935  28.8992977  26.9207835  14.6571066  29.3941688  26.8963981
  16.1118891  29.5068550  27.2987795  77.5275946  96.5438080  42.6365328
  76.9924259  95.8843040  43.0779886  77.9245329  96.0770607  41.9011259
  34.2881968  25.7292747  33.1401324  33.6829855  25.5381679  32.4235916
  33.7218096  25.9081554  33.8907623  28.0272105   9.8095607  27.5063634
  28.8669779   9.4533538  27.2163081  27.9298308  10.6245899  27.0139432
  72.6830864  92.7247429  17.2622132  73.3211422  92.7189636  16.5487123
  72.8869581  93.5168648  17.7594197   0.3874590   6.9840812  39.2559147
   1.2551024   6.6622733  39.5005941   0.3585770   6.8943786  38.3033657
   7.1934893  27.1075534  13.3487654   6.6971304  26.6785144  12.6517773
   6.5351202  27.3396301  14.0036869  82.2774792 103.0533218  40.8300972
  81.5445995 102.4745846  41.0402632  81.9083786 103.6974239  40.2258301
 110.2964307  12.2698783  15.8371532 110.3525544  11.3436317  16.0720122
 110.0638152  12.7105331  16.6544342   2.2180560  14.4579601  64.9167919
   2.0367529  14.1326808  65.7985830   2.5738194  15.3359603  65.0538254
  19.0104902  75.3502703   3.4684181  19.4558895  75.0279379   4.2519689
  19.0193844  76.3027859   3.5626128   0.6345561   5.7455444  24.2251730
   0.7063963   5.4036712  23.3339977  -0.1757047   5.3643131  24.5633626
  65.5169201 102.2996044   3.0092058  66.4476299 102.2955036   3.2327980
  65.4845619 102.6653576   2.1252325  48.9186764  74.0695524  58.6835241
  48.9110422  74.5825386  59.4916201  48.2536697  74.4815922  58.1319666
 102.4776078   4.7811126  31.1687088 103.2299758   4.2260646  30.9635377
 102.1463061   5.0605583  30.3152561  31.3189890  40.3048038  54.4829655
  30.7460978  40.7966613  53.8946629  31.5233424  39.5023727  54.0027809
  91.7158223  13.1466102  47.7155256  91.0935355  13.6436176  47.1845150
  92.2754956  13.8126373  48.1147766  39.7645211  49.2229843  10.7020187
  39.4845390  50.0473547  10.3042114  40.7180405  49.2918205  10.7498837
  70.2607632  69.1327715  55.2373791  71.1743546  68.8500929  55.2782488
  70.1388741  69.4189930  54.3321419  49.2782497  83.9829159   9.0191263
  48.5738134  84.5236397   8.6618787  49.4326210  84.3383121   9.8943925
   8.9282515  10.4267120  33.5126209   9.1453650  11.3537979  33.4145880
   9.7516730  10.0141620  33.7734056  93.0315972  67.7469921  50.9872627
  93.7754584  67.3663616  51.4541960  93.1905843  68.6905765  51.0121489
  96.1040592  98.2494736  16.4852810  95.2622414  97.8041458  16.3890874
  96.5756607  98.0473614  15.6772113 108.0429745  91.7713356   9.4993454
 108.2771301  92.1686459   8.6605674 108.7562752  91.1597633   9.6821165
 108.6785079  12.6387214  48.4958029 108.3826495  12.1836090  49.2842007
 108.6733056  13.5648441  48.7376738  96.1602948  38.8413160  88.3339081
  95.6973503  38.0343358  88.5590849  95.9449337  38.9921396  87.4135262
  70.2232790  77.4971962  52.7409744  70.5855703  76.6222334  52.6016474
  69.2854404  77.3511600  52.8648996  82.3336506  90.4714203  65.0362968
  81.8369007  89.7152042  64.7238588  82.1365833  90.5174923  65.9718561
  45.6873083  77.2817278  54.2740822  46.3015270  76.7117310  53.8114119
  45.8608484  78.1554031  53.9236355  65.5032491  61.0837286  91.4745414
  66.1761808  61.5436761  91.9763888  65.2364968  61.7099111  90.8015108
   5.2478316  16.7830562  48.9680243   5.2346709  15.8351135  48.8358593
   6.1235049  16.9652175  49.3089676  64.7072458 101.4909744  37.3628068
  65.1958561 101.7561150  38.1420326  65.3623915 101.0830402  36.7965889
  69.1860104  88.2358646  51.7424250  69.4302654  89.0049934  52.2572184
  68.4130621  87.8864288  52.1859026  95.7678127  80.8480453  19.3594694
  96.1862564  81.2040710  18.5756469  94.8340225  80.8388329  19.1492665
  49.5340681  88.8355732  25.6909847  50.1229525  88.1862259  26.0754275
  48.8204718  88.3194542  25.3159666  63.0354500  68.9106178  56.5979719
  63.2035637  68.0261469  56.9230604  63.2174301  68.8595152  55.6596184
 103.4996653   1.2017917  42.4328804 103.4839154   2.0090389  41.9187593
 103.0397225   0.5623912  41.8889427  81.4799881 105.4684544  33.3020186
  82.0242786 105.2116776  34.0463567  81.4506912 106.4242363  33.3451509
  62.2434855  88.9484406  61.6320276  62.9072094  88.7177563  60.9820366
  61.5759611  88.2680035  61.5445995  82.5679779  99.3256855  29.0745616
  83.3931065  99.5509624  28.6448503  82.7657032  99.3684101  30.0101423
 103.0437565 103.4012890  22.2572494 103.3719921 102.5290871  22.0386934
 103.8319111 103.9220810  22.4115658  54.5097494  91.3906574  25.3528333
  54.5762539  90.5824947  25.8614469  55.4150581  91.6104889  25.1329970
  83.6284351  97.2237396  36.6767240  83.6836910  97.7398586  37.4809647
  83.8424397  96.3315392  36.9495177  51.5656328  84.0937042  59.3251944
  50.6687307  84.3314362  59.0900707  51.6342926  84.3084335  60.2554703
  37.7767467  90.0134754   5.3061563  38.5117698  89.9823093   5.9185314
  37.2359419  90.7391644   5.6178236  79.6464872  75.9592485  42.7441931
  80.3867340  75.4029608  42.9867029  79.1266775  75.4198790  42.1482801
  86.8491268  87.8695965  34.3825841  87.5010014  88.3084297  33.8360357
  87.2531319  87.8264523  35.2492738  18.5516455   5.8924293  21.7544627
  17.6736643   5.7463836  22.1066594  18.4185793   5.9879112  20.8113766
 101.2684823   2.0755004  48.0117130 100.3841973   2.4240970  47.8987598
 101.5238906   2.3509883  48.8921118  87.9450465  27.4674606  36.4819121
  87.5831080  26.5953254  36.6388083  87.3766471  28.0556678  36.9790721
  14.6366122   1.3328552  20.1774931  14.2404273   1.5996932  19.3479979
  15.5270007   1.0702228  19.9441147  60.7854652  81.5345669  50.3369951
  61.5835714  81.1495876  49.9749899  61.0736084  81.9762802  51.1358070
  84.3445397  17.5985431  23.2193971  83.8926078  18.2957363  22.7440882
  83.7086535  17.3011398  23.8701153  44.7581036  18.6842155   9.7005737
  43.9988077  19.1360187   9.3323696  44.6475668  18.7632083  10.6480837
  53.2727098  76.3377905  26.6826701  52.6096678  76.9691992  26.4035106
  52.8428125  75.8263111  27.3680949  78.0809832  92.9987049  64.4411850
  77.9768991  92.6419544  63.5590696  77.2749996  93.4909534  64.5971060
  88.9874030   2.5117874  32.7829003  88.2715751   2.3105430  33.3856630
  89.7817660   2.3469638  33.2908869  90.8836938  27.4270248   9.0918070
  91.3201094  27.9424381   9.7701293  89.9586869  27.6597022   9.1721475
  10.3768207  47.4487305  47.3033953  10.2485134  48.3962345  47.2585773
  10.0817443  47.2083521  48.1816769 111.9462348  33.8939094  38.4721875
 111.5552235  34.0584182  37.6141214 112.6656676  34.5224475  38.5320377
   2.7857640  18.3334255  55.7919216   2.2450592  17.8937148  56.4480686
   2.7317812  19.2614936  56.0199642 102.7620983  98.7188625  54.1124344
 103.4336758  98.0411720  54.0352964 102.5828743  98.9822960  53.2098198
  49.1341924  62.1236341  86.6233975  48.9268731  61.1907213  86.5694052
  49.7527360  62.2733133  85.9083915  75.9953833 106.5034389  43.5024309
  76.3289452 105.7458496  43.0217886  76.7781353 106.9277668  43.8538122
  46.9602871  95.4949284  50.3268957  46.2854385  95.3261566  50.9844065
  46.7251301  94.9290085  49.5915985 109.8575021  31.7188739  52.3685837
 109.7701932  32.6656627  52.2581148 109.3050004  31.5137863  53.1228495
  61.9195080  91.7589664  32.4999714  61.0342598  92.1056843  32.6111007
  62.4176502  92.4880409  32.1304560  19.3305923  96.4701748  31.4371681
  18.5691120  95.9797001  31.1276388  19.9946930  95.8012962  31.6039658
  59.0439415  94.2918205  30.3121662  59.9871635  94.4372559  30.2385926
  58.6622381  94.8470020  29.6322322  88.7160064   4.5978164  75.6874752
  88.4335519   4.3754959  76.5746212  88.2615519   5.4166793  75.4895639
  87.1055031 105.0896263   4.5061889  86.6916656 105.7341862   5.0802231
  87.8209877 105.5672073   4.0863690 101.8841267   3.1274509  55.7441425
 102.1123076   2.6366615  56.5336323 100.9968997   2.8385639  55.5305910
  24.1967776   3.0742740  46.8594027  23.4923842   2.4420070  47.0019102
  24.2139342   3.5982608  47.6602602 109.5184232   3.9716625   9.7586292
 108.6129905   3.9305686  10.0664210 109.9473430   4.5832157  10.3571761
  53.2610559 100.8554173  13.0445802  53.8034439 101.5896511  12.7565670
  52.4691868 100.9186649  12.5105608  66.9545889  89.4244576  57.7613497
  66.9759464  88.8504219  56.9956732  67.7822781  89.2546463  58.2111597
 110.7003925  56.4627664  78.6294377 110.7669780  57.4169557  78.5930384
 111.0479996  56.2310998  79.4906748   6.1459877  82.8641987  23.9947820
   6.5407230  83.7323093  23.9123273   5.2692176  83.0316162  24.3404508
  50.0691843  90.6950951  53.0523729  50.8765984  90.4048061  53.4766912
  49.3792534  90.4865646  53.6822462  75.0373650  91.7991447  44.2640734
  75.0372934  92.4777508  44.9391460  74.3066931  91.2272644  44.4992542
 110.9280825  19.4759368  51.8681860 111.3757802  19.0141773  51.1592674
 110.0137330  19.5162677  51.5878820  57.3399544 104.4271564  30.1494503
  57.7936172 103.9540768  29.4518685  58.0161810 104.9773216  30.5447698
 108.7966204   4.4363117   1.6614880 108.4572984   3.7608909   2.2487700
 109.6390391   4.0932845   1.3633375  34.6202898 104.9162388   5.3826404
  35.0302100 105.6456947   4.9177918  33.7403750 105.2296829   5.5917656
  75.1345062 101.3870907  25.6604815  75.1964569 101.1981010  24.7241688
  75.3214836 100.5505848  26.0865450  79.7210646  91.0786152  17.0798898
  80.2057362  91.7840767  17.5084436  80.3330612  90.3427887  17.0640600
  50.4544067  96.3399792  15.5200601  50.8153534  97.1862793  15.2560043
  51.1556244  95.7138157  15.3399467 102.0368243   8.4638023  17.8022850
 101.1267663   8.2278346  17.9821444 102.2794009   7.9255294  17.0488560
 102.4256230   1.5985584  24.0675282 101.6130591   1.6550254  23.5647511
 103.0727912   2.0536136  23.5287094  36.7802072  62.3686457  49.9475479
  36.0316086  62.0951176  49.4174385  37.5448513  62.1271610  49.4248295
 103.5889817  15.3773021  61.0899067 103.8690234  15.2119254  61.9901657
 104.1702557  16.0727596  60.7821846  97.8776646  24.5043468  32.2625709
  97.5607825  25.3764152  32.4977612  97.7744151  23.9883041  33.0621147
  31.9274044  92.9100800  11.4929855  31.7697620  93.1412697  10.5775988
  31.3119531  92.1985912  11.6697335 111.2132979  11.5321731  51.4316702
 110.3341628  11.1837291  51.2835693 111.1819220  12.4203777  51.0762119
  29.7228192  50.0024431  88.8296268  29.5990800  50.4470746  89.6682102
  28.9859485  50.2941625  88.2928282  86.4232254  76.0597515  13.4802413
  85.9838486  76.4646912  14.2280388  85.7572842  75.4948521  13.0882740
  74.4139767  84.0101528  24.2656136  74.2296505  84.5171070  25.0563455
  73.5571623  83.6947536  23.9781618  92.1563626   0.4416847   7.1832663
  92.4181987  -0.0165749   6.3847196  91.2192345   0.2645397   7.2647429
  68.3384371 100.1362991  32.2776341  68.4376860 100.4155445  33.1877995
  67.7601910 100.7918739  31.8876600  66.2438440 102.1182728  30.9940982
  65.6867266 102.4144745  31.7139053  65.7116795 101.4723873  30.5294943
  87.1680069 105.3730869  17.6562226  87.8963280 105.4517078  17.0401061
  87.2982025 104.5215511  18.0735600  86.7975140  53.6878300  60.4939556
  87.4248123  53.5820913  61.2091827  85.9731197  53.3531857  60.8469820
  46.4519453 100.2143383  25.8029580  46.4653683 101.0649300  25.3641534
  46.8655443 100.3757572  26.6509628  38.0004859  57.2331285  26.0438108
  37.2907877  57.8685045  25.9496975  37.6450038  56.4215755  25.6815290
   0.6497767   5.0988674  21.4603877  -0.3039691   5.0540256  21.3926268
   0.9600785   4.9649524  20.5648351  42.1051979 106.5636921  39.5466042
  42.8065014 106.6891098  40.1858807  41.3550615 106.2765217  40.0672388
  22.5496867  22.4162673  22.3902249  23.1678107  22.7885150  23.0191875
  22.9174139  21.5601348  22.1710348 103.3266021  20.0722312  57.1706867
 102.6984502  19.3505477  57.1419525 104.1609717  19.6551227  57.3853588
  59.7430420  94.3062115  42.9878807  60.3362131  94.3317509  42.2370625
  60.2809429  94.5880890  43.7277746  79.0470076 102.8154278   1.5720995
  79.9444151 102.7436161   1.8972625  78.8330555 101.9351101   1.2630893
  77.5526667 100.2784252  12.5288177  78.3375692 100.0759697  12.0197225
  76.8299055  99.9438286  11.9978821  22.7610733  83.0399895   7.2235870
  22.2259952  82.9031277   6.4417952  23.1789161  82.1929741   7.3791373
 110.4422951 101.9787407  77.7888584 111.0447407 101.2670517  77.5725698
 110.0857353 101.7390919  78.6442375  64.7522402 101.3151932  53.8343859
  64.0216970 101.0969067  53.2556820  64.3529415 101.8160248  54.5456934
  48.1228685  54.2850034  84.7546769  47.4126863  54.4028299  85.3855467
  47.6821183  54.2179315  83.9076406  49.8140049  88.6897945  13.4570861
  50.1266813  88.7505722  12.5544393  48.8768530  88.5132599  13.3745575
  50.3748369  78.0788946  36.1685610  49.9116230  78.0107355  37.0034385
  51.1752844  78.5604620  36.3773847 106.6560459  80.7893848  75.2966166
 106.5668964  81.3451481  74.5224047 106.6655636  79.8968363  74.9509287
  68.5760546  66.9545031  23.2098222  69.3739605  67.2721004  22.7870798
  67.9614735  67.6851130  23.1410360  82.8084946 101.1812592  37.0267749
  82.4311638 100.7883644  36.2397027  82.4615765 102.0732975  37.0390892
  64.2449617  92.4152279  37.6997280  63.2920122  92.4987793  37.6660299
  64.5524454  93.2834148  37.9603672  75.9167957  61.5902424  38.3018041
  76.6731882  62.0331573  37.9171944  75.8068609  62.0038509  39.1580009
  71.1822653  95.6751633  54.6460104  71.0451412  94.8629761  54.1583824
  72.0902824  95.6248188  54.9446726   4.2908432   5.4835605   8.5082650
   5.0065710   5.6410598   7.8925031   4.5433047   4.6836852   8.9694405
  24.1647055  28.6252689  44.5977640  24.0703490  29.3066406  45.2633905
  24.7994044  28.9831066  43.9770031 106.3069248  87.6990318  60.8864784
 106.8732834  88.0748463  60.2125072 105.4915142  88.1957150  60.8183765
  25.3806784   0.8757114  26.9822788  26.0934641   1.5140533  26.9560289
  24.6641257   1.3346862  27.4205995 104.7416974  13.5448741  36.4996815
 105.2267028  14.3665122  36.5766001 104.6068955  13.2607841  37.4037552
  73.6852121  69.4834757  30.8921766  74.4762611  69.9783850  30.6787801
  73.0535889  69.7401047  30.2202940  67.2777224 104.8405170   2.6895371
  67.3610449 105.4868698   1.9884585  68.1541300 104.4651508   2.7746391
  73.6809826  69.4548273  35.7804155  74.2870283  69.7308207  35.0928330
  72.8369999  69.8218012  35.5172491 103.3925010  17.0266818  80.3178787
 102.6126338  16.4746570  80.3753853 103.2154609  17.7542304  80.9141636
  82.3682594  82.7361774  49.5274830  81.9052696  82.3836040  48.7675047
  82.3365498  82.0320511  50.1751232 109.9127769  87.4685097  61.5391159
 110.4998016  88.2123947  61.4039755 109.0344334  87.8476048  61.5069675
  94.1069127  14.2107868   3.5693771  93.2672263  14.4738674   3.1926161
  94.7512341  14.7647857   3.1287321  64.6813869 106.2793732  58.1552362
  65.1310110 106.9899273  58.6125946  64.3084097 106.6936016  57.3770761
   3.6068680  16.9273567   0.7543021   3.2986071  17.4472236   1.4965534
   3.8892224  16.0992908   1.1426667  23.8857272   7.2402095  19.9629951
  23.1550410   7.6924419  19.5413065  24.1149142   6.5369892  19.3553853
  22.1392634   3.5435867  25.9863472  22.6621726   3.9283370  26.6897416
  22.6078131   3.7763309  25.1847744  56.5083742  94.9305820  40.6594181
  57.2564459  94.6842098  40.1154280  56.8398380  95.6334019  41.2183619
  69.4467020  99.4362450  58.0055285  69.3612862  99.1084385  57.1102715
  68.6765957  99.0948677  58.4600878   4.9942731  18.0955284  80.6851280
   5.5315684  18.8543384  80.9126151   4.9526500  17.5811784  81.4913178
  50.7863474  92.1547890  46.3021231  50.8330107  91.2996197  46.7295933
  50.0239229  92.5783920  46.6964722  38.9759969  35.2223604  56.4663232
  39.2905378  35.9425371  55.9198416  38.3061408  35.6191366  57.0231855
  73.4092712  84.9357128  14.0872824  73.0665541  84.3731594  14.7817695
  74.3563652  84.7996616  14.1143334  11.4187815  17.4052619  23.9298606
  11.6644766  18.1646251  23.4014344  10.4659941  17.4618816  24.0020752
  85.1669979  98.3783913   2.1397394  86.0413456  98.4564781   1.7580792
  84.5756149  98.3857155   1.3871214  24.0178254  70.4017431   5.9528935
  23.5952476  71.2561685   5.8656895  23.6152652  69.8646719   5.2704441
  83.3937169   1.6665744  16.6383529  83.3461047   2.5689506  16.9540656
  82.5559283   1.5222072  16.1984622  66.8086195  83.6124134   3.6304793
  67.3813820  83.7020588   4.3921465  67.1833467  82.8853798   3.1332585
  79.8634243  81.5536308  39.3546629  80.5816555  81.0190868  39.6932530
  79.6928978  82.1920395  40.0471783  42.2116899 103.3509445  68.3016872
  41.3674784 103.7905407  68.4031248  42.0530987 102.4557495  68.6012077
  54.0544415  83.7708569  21.6922522  54.4935751  83.5163116  20.8807063
  53.8135242  84.6873093  21.5569401  66.5796995 102.4791622  38.9775753
  66.2788677 103.1500053  38.3646345  67.4793911 102.2945118  38.7079501
  76.0631323  90.9346485  47.5182009  76.3425875  91.0001278  48.4313536
  76.5684032  91.6090107  47.0641470  84.7375965 102.7683163  46.8612099
  85.3137302 102.0049763  46.8209028  85.3265095 103.5177803  46.7733812
  41.3020804   3.4891796  30.7934761  41.6215231   3.8398551  31.6248703
  40.8529570   4.2261409  30.3794456  17.0887377   8.5670280  45.5909443
  16.5448096   8.1889152  46.2818909  16.5123846   9.1877269  45.1450968
  60.8460283  96.4402008   0.6822583  61.4524460  96.7561150   0.0124159
  60.0319529  96.2713814   0.2079043 105.7990027   3.2031822  45.1951981
 104.9881554   2.7000236  45.1204300 106.4643575   2.5530719  45.4207945
  28.0053141  19.4513988  27.0029974  28.1988623  19.3442916  27.9342866
  28.8572504  19.6154975  26.5986395  49.1620016  98.9313030   9.3742085
  48.2569742  99.1804600   9.1869253  49.6889019  99.5138550   8.8271797
  70.7168626  64.5437353  91.4014819  70.3729390  63.8033788  90.9016523
  71.6165780  64.6451299  91.0908892  35.0853682  93.2187557  16.1878991
  35.2149630  93.9365005  16.8078089  34.2297006  93.3926010  15.7956707
  48.4872579  72.8004377  83.2741607  48.8434934  72.1528928  82.6658726
  47.5791978  72.9172914  82.9948706  65.7414579  98.1409836  32.2043443
  66.5900135  98.0155373  31.7795539  65.3190422  98.8332272  31.6958261
  54.3274450  86.6931248  17.0799148  53.8953495  86.7809010  16.2303138
  53.7654018  87.1763992  17.6855385  90.3350259   9.4016456  61.8369770
  89.8404075   9.9931526  61.2697840  90.1407481   9.7027206  62.7245808
  52.1838379  84.7671032  10.7958841  51.8623161  85.2644825  10.0439084
  51.5140009  84.8900890  11.4685118  85.6783581  89.9139977  20.3081870
  85.5542183  89.8027706  19.3656111  85.5222034  90.8457565  20.4620314
  52.2694399   0.2983570  50.4572773  52.1215155  -0.4976750  49.9467134
  53.1024077   0.6400394  50.1322556  86.7234802 100.7581043  43.8028288
  86.2381744 100.8334255  44.6244383  87.4904633 100.2303600  44.0252066
  90.2300072  94.2417145  57.0924759  89.6668530  94.8153687  56.5728521
  89.6371269  93.8287354  57.7203083  61.9863366  91.7121427  79.1536284
  62.6810502  91.0661237  79.2811632  61.8131589  91.6949766  78.2123816
  73.6063814  92.9071617  60.0091839  74.2065334  92.6637077  59.3043566
  73.9924335  93.6955166  60.3908682   5.6360152  11.9414901   7.4220127
   5.7203581  11.3574027   6.6683799   4.9512484  12.5608444   7.1695614
  86.3551521 106.2096786  34.6545410  86.5095425 105.6304169  33.9083123
  87.1527004 106.1418056  35.1794577  99.4615936  88.6254025  35.6678820
  99.4333267  87.6825237  35.8303905 100.3834820  88.8099384  35.4881644
  93.0044700   5.4151916  37.5331354  92.3941136   6.1471843  37.4443555
  93.8561440   5.8290958  37.6729727  43.0417921   4.7179126  37.6398420
  42.3127081   5.1523590  37.1972084  42.7787306   3.7988948  37.6890731
 112.1172047  15.7066059  76.4061642 112.9378033  15.2890109  76.1445236
 112.2808696  16.0198688  77.2957182  71.8992519  93.9885521  26.4776254
  71.3677597  93.8936710  27.2680330  72.4086237  94.7853184  26.6257358
  62.3138189  93.8402176  28.1643510  61.5808964  93.3001804  27.8687048
  61.9072676  94.5276546  28.6919618 100.5971099  12.5707435   7.5746459
 100.8989621  12.1121501   8.3587420 101.0848428  12.1656131   6.8575513
  50.4854249  58.0332868  89.3848986  49.8539590  58.5409181  89.8945946
  51.3044213  58.5226552  89.4623772  73.5919619  97.5599766  32.6014900
  73.7110662  97.7538872  33.5312462  72.7051878  97.2044468  32.5426602
 102.1601677  95.2274513  19.5005512 102.2494507  96.0950565  19.8949075
 102.9807854  95.0944233  19.0260744  20.4300215   3.9114189  46.0220957
  20.9886839   3.1703948  46.2566376  20.6094077   4.5688056  46.6943312
   9.2306902  16.1532783  41.7253590   8.6875441  15.5219936  41.2534428
  10.1289561  15.8658885  41.5617609  26.0947897   7.8597354  27.5508952
  26.4816954   8.7311744  27.4664593  26.3136008   7.5858020  28.4415770
  92.5670528 101.8611908   1.5817805  92.1696663 102.3206997   2.3214903
  92.8014088 102.5557804   0.9662669 110.0220919   1.4288425  55.2794695
 110.7800294   1.4941215  54.6985197 110.3174783   0.8676242  55.9964132
   3.7960436  27.5716686   2.4707118   4.4879057  27.9771041   2.9933724
   3.8966753  26.6327285   2.6272106  50.2996016  92.7404213  72.0722437
  49.9298382  92.8922367  72.9419899  50.7872152  91.9213104  72.1589231
  57.6359558 104.9223900  74.7243834  56.7930746 105.2793312  74.4444275
  57.5487185 104.8171520  75.6717730  84.9062443  79.3491220  25.3935146
  85.3373146  80.0363636  25.9015632  83.9819527  79.4186354  25.6324625
  30.8634283  20.6655597  10.8237731  30.2004340  20.8486843  10.1580846
  31.5447619  20.1820850  10.3565919 101.0125686   5.6875324  42.7477121
 100.4557229   5.3171729  42.0628881 101.7022324   6.1500263  42.2715855
  67.0533228 105.1483154  29.0510750  66.3477421 104.6431351  28.6471128
  67.8555775 104.7659206  28.6955523   1.8584158   4.0240383  18.9603269
   2.7181151   3.7459754  19.2762935   1.5876534   3.3293247  18.3600819
 110.6395818  12.5700282  31.8364096 110.3166676  12.6857471  32.7300358
 110.6930590  11.6211891  31.7220473   9.6511557   5.4500770  48.4745121
   8.8881113   5.4528617  49.0524292  10.3189471   5.9372329  48.9571810
  20.1027586  10.6840705  31.0606694  20.3947070  10.2625369  30.2523947
  20.3014090  11.6115951  30.9323406   5.8855345   0.5495166  55.7107878
   6.6694739   0.0883960  56.0091877   6.1415484   1.4717101  55.6949949
  70.9638214  83.9014816  31.0242796  70.3869104  84.2600441  31.6986966
  70.8661270  82.9527283  31.1051846  14.8700526   8.3419227  42.1304798
  14.7506335   8.7168025  43.0030823  14.3344786   8.8915157  41.5583467
  46.9871807  85.9914875  18.8993621  46.4731503  86.2967873  18.1518376
  47.4835873  86.7607021  19.1788661 104.4979621   4.0357780  14.8630798
 104.3244124   4.6763229  14.1732955 105.2437640   4.3963622  15.3426528
  96.4656783   0.6177997  28.6939716  95.6242991   0.7161331  29.1396689
  96.7320443   1.5131092  28.4849000  63.3195733  79.5541971  88.8240484
  62.6884984  80.1791685  89.1809565  64.1741799  79.9365156  89.0233267
   4.4697478   9.7581863  40.6779480   4.2980339  10.5643939  41.1645412
   4.1751673   9.9486064  39.7873354  15.7848598  70.7568121  12.0678568
  15.1272918  71.1595583  11.5007389  16.6035892  71.1935568  11.8329656
   6.1557963   9.5983123   1.5851651   5.9310248  10.3916740   2.0712534
   6.5114977   9.0048503   2.2466120 102.6397896 100.6054878  20.4124403
 101.7203617 100.5832481  20.6777406 102.6652622 101.2318516  19.6890771
  66.5088987  71.8297577  35.8759499  65.9784794  72.6263857  35.8594513
  66.1039829  71.2863636  36.5519643  81.0514736 103.0418015  14.3644190
  80.1211643 103.0234337  14.5889294  81.4908981 102.6813316  15.1346159
  74.1795731  92.4491978  14.9009454  75.1231337  92.5586987  14.7828948
  74.0067482  91.5486717  14.6263504  30.6712388  49.9753301  70.5654705
  30.4633903  49.6080320  71.4246095  31.4196538  49.4624441  70.2604115
  53.2781553  89.1639137  46.9077444  53.7775326  89.7208977  47.5049257
  52.5464535  88.8430977  47.4349260  86.7424393 104.4743729  61.3142347
  87.5595570 104.5443439  60.8206272  86.8758869 103.7239075  61.8932247
  81.6998959  88.5301876  29.0723896  82.3553276  88.1614017  29.6645379
  81.9507027  88.2076836  28.2067585 102.0606995  87.8864956  39.3972492
 101.9193935  87.0751095  38.9094853 101.3787270  88.4785271  39.0800118
  34.0717986  17.7785682  50.5476570  34.6819689  17.7992725  51.2848759
  34.3125060  16.9911289  50.0595665  17.0253088  29.3447112  30.8882141
  16.1452391  29.5728111  31.1876702  16.8951991  28.5880279  30.3166056
  96.9691897  25.6511592  29.1723037  97.5331403  25.4400730  29.9163699
  96.4739085  24.8479556  29.0117121  83.7278701  20.0886249  68.6320114
  83.9422179  20.5396461  69.4486332  84.1947747  19.2549800  68.6891365
 112.2730447  34.5013999  11.3368857 112.2080041  34.1958236  12.2416627
 113.1911660  34.3645954  11.1032867  66.3670492  95.4689980  26.6318440
  65.8046246  95.8420753  25.9530807  67.0638371  95.0252342  26.1483264
  60.0044775  94.2879295  73.3480549  59.8830509  93.5204887  72.7890158
  60.6765079  94.0228844  73.9760303  57.5898600  92.5841904  17.5105059
  58.2213640  91.9215679  17.2305822  56.7513990  92.2765732  17.1661389
   3.6718895   2.9656124  66.7429972   3.7981846   3.9072513  66.6263962
   2.9617693   2.8964042  67.3811007   5.1582672  72.9885197  34.8992085
   4.2828228  73.3709812  34.8396015   5.3071167  72.8761244  35.8380580
  91.0758877  69.0408850  26.2990522  91.1577034  68.7909937  27.2194290
  91.2197399  68.2270145  25.8161950  19.5714784  37.1338558  30.5839705
  18.8301837  37.1906161  29.9810672  19.3739951  37.7743530  31.2673426
  63.7008783  83.7135237  75.8013308  63.5677311  82.9338639  76.3404358
  62.8759929  84.1945165  75.8679569  63.0924722  71.1509507  85.4291690
  62.2739813  71.3156753  85.8973277  63.0449483  71.7155891  84.6577055
  42.0768023  25.5916238   5.6567585  42.3849344  25.2968240   6.5137184
  41.7092419  26.4601970   5.8201873   5.4897386  17.3092341  55.8175707
   4.7117049  17.8152895  55.5834675   5.5468351  17.3846173  56.7700863
  67.4647710  80.8706587  67.0296204  68.2681534  81.1982339  67.4339736
  67.7536484  80.4808109  66.2045133  48.9349079  43.3440638  27.0893860
  49.1197205  42.6213741  26.4895558  48.0756569  43.1366920  27.4566984
  89.5099303  78.3036774  69.9985397  88.9601514  77.8842562  70.6604016
  90.3434750  77.8357142  70.0479877  63.4946632  35.6860948  18.9325440
  63.9835215  36.4948654  19.0846539  63.8146591  35.3679752  18.0883670
 105.5077980  67.1463872  14.4794714 106.2798021  66.7831994  14.0454924
 105.8017490  67.3384190  15.3699481  37.6753211  13.1275105   9.0126252
  37.3186040  12.3250175   9.3934000  38.3860850  13.3774042   9.6030498
  31.8211365  46.8589592  48.6375141  31.9792175  47.1481085  47.7388287
  31.9010210  47.6551294  49.1628361  29.9471164  52.1635723   0.1321838
  30.1242948  52.9194641   0.6920682  29.0467119  51.9157791   0.3421835
  43.4720898  19.6828032   2.6278087  43.0399799  18.8487101   2.8116623
  44.0936136  19.4814742   1.9282354  89.5194623 102.5746744  84.4609577
  89.9142882 103.2386034  85.0262416  89.7134062 101.7441052  84.8954356
  45.2708435   4.6595049  24.3620205  44.8972988   5.4534906  24.7444916
  45.4276848   4.8861140  23.4453535  48.4942341  11.0395205  19.3972611
  48.8566446  11.8822432  19.6705925  47.7349758  10.9096813  19.9655056
  15.1450896  12.8832412  17.7862048  14.3452168  13.3022833  18.1037557
  15.2702081  12.1337986  18.3683670  51.5450144  20.9491920   7.7678072
  51.5357637  21.8537283   7.4548203  50.7990122  20.8947778   8.3650953
  81.8343720   5.1936500  77.3948777  82.2503624   4.5146625  76.8636954
  82.3226867   5.9909599  77.1897340  27.7865458  32.9802608  47.0947504
  27.9103279  33.4646559  47.9110050  27.4805689  32.1168995  47.3726320
  10.7622909 106.0838833  32.2056198   9.9952315 105.9698111  31.6445184
  11.2962245 106.7359060  31.7517304  44.8399305  54.4853449  62.2201729
  45.0594807  54.9305439  61.4017439  45.3128529  54.9746609  62.8933334
  24.0382695  44.3409681  25.6512165  23.8407254  44.6239996  24.7584105
  23.9658403  43.3869743  25.6216002   0.4152472  12.5838697   5.3400779
   0.4690975  11.9844115   4.5957789   0.6191966  13.4431076   4.9708259
  29.7935343  12.4226201  21.0677838  30.0371146  13.2436979  20.6403136
  29.1771197  12.0109582  20.4621434  99.2163846  60.0552797  89.2197126
  99.7862860  59.2912834  89.3077803  99.6478030  60.6014257  88.5625723
   6.1837500  25.0091338  19.7638416   6.9550329  24.8445988  19.2213631
   5.5606502  25.4313636  19.1724873   3.5402536  78.8274003  40.7007074
   2.8343057  78.4464646  41.2229729   3.9769553  79.4363976  41.2962246
   1.8787016  32.5348020  60.7483387   1.7712270  33.4150577  61.1086607
   2.7815118  32.5145125  60.4309225  24.0109849  25.4461789  22.3336816
  24.0731215  26.1562228  22.9725933  24.4186473  24.6968699  22.7679372
  30.2975583  26.2633419  31.0798836  29.5896053  26.2639380  31.7241144
  29.8520589  26.3174582  30.2344036  17.8075802  49.2211533  43.2033300
  17.8008568  50.1233959  42.8837204  17.2281802  49.2326069  43.9651680
  94.5880982  74.4455188  90.2488032  94.2492577  74.1317742  89.4103629
  94.8888728  75.3359645  90.0674835  80.8355618  13.3669698  14.2217767
  79.9237442  13.1139231  14.3659651  81.1796665  12.6966536  13.6314392
 106.4398663  17.2761798  13.1436181 106.4693956  16.8509507  12.2865641
 105.7883547  16.7771268  13.6362755  14.5118451  30.0841498  31.6773748
  14.4295907  29.7186208  32.5582004  13.7385786  29.7647357  31.2123322
  44.2643070  14.1542971  17.0652401  44.3539286  14.7093666  16.2905800
  44.2350531  13.2624757  16.7187870  28.1523466  19.7360289  13.0429637
  28.6063027  20.5527639  13.2505715  27.7313423  19.4806767  13.8638067
  22.4933338  47.9415369  35.7447386  22.0803094  47.1656227  35.3657889
  22.1526527  47.9819202  36.6383481  64.8918959  48.7434914  87.2612447
  65.5083510  49.4297504  87.5167114  64.0806052  49.2116111  87.0640052
  25.3639889  48.2642460  51.5175009  25.2854252  48.7416124  52.3434448
  26.0684562  48.7114334  51.0484838  36.1243892  16.0774136  14.0506113
  35.7048678  15.2441669  14.2649281  36.2291718  16.5168524  14.8944986
  24.3163133  35.4372716  38.3502603  24.3655539  35.4592276  37.3945808
  23.5724711  34.8650575  38.5386801  88.8358591  42.5857687  20.4732442
  88.1629704  43.1340694  20.0697374  89.3115948  42.2073412  19.7338521
  15.7848406  31.6088700  48.3572388  16.1886191  32.2571993  48.9341784
  15.6673777  32.0683193  47.5257683  28.3483601  12.9285944  23.5332298
  28.8128352  12.2419691  24.0118098  28.6113548  12.8047335  22.6212406
  32.8773856  14.1894114  42.8232288  33.8145423  14.3296766  42.9584932
  32.7844143  14.0897930  41.8757772   6.2467468  30.0845432  11.1857224
   5.5096674  29.6935582  11.6548455   5.9781939  30.9899473  11.0296738
  67.1360970  15.5478251  37.4821448  66.2788677  15.5849946  37.9064178
  67.6171875  14.8810363  37.9722261  91.9395968  87.5192469  83.6935717
  91.6248795  88.2890742  83.2197059  91.7662331  87.7170818  84.6139187
  11.9887923  67.6799815  89.0236941  11.8161772  68.2478135  89.7746960
  12.8138159  68.0044382  88.6627284  24.7262311  33.0537844   9.2389971
  25.4741144  32.7121496   8.7489092  25.0102663  33.0356145  10.1529038
  47.5014925   9.1882706  40.4034996  47.3906374   8.5359490  39.7118211
  47.8237581   9.9667037  39.9491644  46.3648701  43.7458134  85.7070923
  47.1418953  44.0229225  85.2216339  46.6273212  43.7930393  86.6263962
  14.6915662  24.1999865  27.0888877  15.0648332  24.9951124  26.7085266
  15.4225314  23.7895012  27.5508666  57.2775555   1.2522405   2.8115213
  57.7898121   0.4678814   2.6150408  56.9266987   1.5275520   1.9645640
  41.8159056  30.1435900  23.9252019  42.2948885  30.8397603  24.3748164
  40.8943319  30.3383327  24.0955210  38.2681680  26.0668087   9.3787086
  37.4771357  26.5315485   9.1057295  38.7358618  25.8901095   8.5624546
  44.9293661  29.5997143  10.0994527  44.4684172  30.4381347  10.0710487
  44.7748232  29.2713141  10.9851754 103.0639121  68.7792092  69.3515575
 103.4731003  67.9148644  69.3928540 102.1363208  68.6133581  69.5197642
  13.0522918 101.9869462  17.7425206  13.8805007 101.7655612  18.1683087
  12.3813771 101.6205311  18.3185768   2.3853222  32.2468686  27.6562524
   2.0204374  31.3672352  27.5596404   2.8121561  32.4225450  26.8176913
  21.8301201  56.4374304  10.1379895  20.9100795  56.2186289   9.9900544
  22.3012829  55.6230211   9.9619848  19.2519927  38.6156034  32.9348493
  18.4921825  38.0671883  33.1301975  19.6440387  38.7948990  33.7894750
  42.8382015  19.3291903  51.2933683  41.9744396  19.3697846  51.7038441
  42.9422760  20.1811409  50.8695936  31.8613696  21.2590551  47.7737427
  31.4656186  21.5105319  48.6082315  31.9972849  20.3144765  47.8481197
  89.6819185  28.2513380  53.5574675  88.9344715  28.7210751  53.1874657
  90.1420210  28.9075994  54.0807819  52.6264831  65.4225033  84.4521618
  52.2715494  65.8153980  83.6547357  53.1294486  64.6685260  84.1443056
  78.0992118 106.3918345  16.1367953  78.5192267 106.8341259  15.3990984
  78.7763951 105.8121911  16.4856052   9.9148184  35.6209660  14.8789024
   9.4329756  36.4322233  14.7179067   9.7798955  35.4429436  15.8096743
  29.5868340  72.4635594  92.0989579  30.1007232  72.1395844  91.3592355
  29.3187657  71.6737311  92.5685777 112.9834490  25.4470921  17.3031509
 112.7102805  25.6880665  18.1883299 113.7276322  24.8594236  17.4337924
  16.2554967  26.7536426  10.5665231  17.2093964  26.7909074  10.4963744
  16.0867512  26.6906404  11.5066230  29.3758130  62.8397751  29.9728680
  28.5623360  62.3364735  30.0071287  30.0401211  62.2453117  30.3215003
  91.2028262 104.4734495  68.1887877  91.9873139 104.2407053  68.6854184
  91.1053082 103.7671202  67.5501788  27.4467111  40.9411621  33.1507874
  27.1393514  41.1496544  32.2685766  28.1684065  40.3273869  33.0141687
  16.9909918  38.9130020   5.2952427  17.6203799  39.2151618   4.6404126
  16.3929045  39.6512985   5.4111755  56.8966866  29.7966027   5.5607402
  57.4720383  30.5441165   5.7232845  56.1005354  29.9955463   6.0534835
  21.0680962  23.2229733  50.6934547  21.7067361  23.8288999  50.3176546
  21.0657072  23.4271264  51.6286278  72.1144342  95.1283550  29.3526959
  72.9283905  95.6320477  29.3513298  72.1528435  94.6133137  30.1586032
  56.0060391  90.9928053  72.3375237  55.6781122  91.8885677  72.2581184
  56.2360391  90.9030455  73.2623363  62.2944185  94.4268864  84.3033272
  62.3536798  95.0044554  85.0643337  61.4804527  94.6840685  83.8702613
  17.7001154  29.1885424  47.6216364  16.9223082  29.6357346  47.9552031
  17.4498677  28.2652235  47.5886488  26.9758868  55.3386497  22.5260258
  26.1953807  55.1296377  23.0392098  27.6987004  55.2669907  23.1494308
  68.6407375  22.1901631  45.5947161  68.3871078  22.5302577  44.7366714
  67.9556656  22.4998736  46.1871624  61.0926390   6.2687856  27.9799533
  61.2348270   5.3872162  28.3246970  61.7115784   6.3446814  27.2537398
   8.9481830  47.1965520  86.1548531   8.9044093  47.9964559  86.6787523
   9.0227317  46.4922731  86.7987949  73.4692904  80.8685701  86.1016196
  72.5478527  81.0003512  85.8784271  73.8473865  80.4567020  85.3246773
  50.6093884  40.1202917  19.4889104  50.3599787  39.3334317  19.9735522
  51.5532398  40.1980925  19.6279085  53.7939262  35.8598900   9.3645465
  54.2718124  36.6268921   9.6800852  53.5323381  36.0906720   8.4731752
  13.3321679  10.1501274  12.7198982  14.1795421  10.3572524  13.1139660
  13.5227954   9.4490457  12.0966995  62.8804159  56.7092705  23.9552832
  63.1738806  56.5654612  24.8549652  62.2148657  57.3934793  24.0269184
  39.1305327  33.3346915  24.3819761  38.7805986  33.6639428  23.5541058
  39.8670220  33.9138460  24.5779300  53.2714939  24.5197272  29.5000982
  53.8748741  24.3661165  28.7730742  53.8375711  24.7522163  30.2361250
  37.1199727  35.2874947  18.7877917  37.8226066  35.7199478  19.2730963
  36.4167166  35.1811099  19.4283724  59.1316605  45.5719280  22.6709414
  58.9182901  45.5423689  23.6035872  58.6716747  46.3452387  22.3443937
  84.2522999  79.6340030  85.9332174  83.9172646  79.4977086  86.8194491
  84.0624425  78.8143819  85.4767007  22.6938105  50.6195211  70.0342464
  21.7529058  50.4499149  69.9877071  23.0954218  49.7511196  70.0056505
  43.4837770  30.4191566  31.2187767  43.4763670  29.7974682  31.9465709
  43.8570213  29.9272490  30.4873776  35.2909732  73.8171816  50.7160378
  36.1530995  73.4305000  50.8691549  35.0261807  74.1580200  51.5704060
  38.4595370  51.9155979  55.1434183  37.9092526  51.1656857  54.9174690
  37.8506756  52.5585938  55.5068350  56.7065716  31.3395286  19.7501445
  56.1104298  32.0427179  20.0077701  56.1830616  30.7797790  19.1766918
  59.0391731   6.5564501  25.3128338  59.5825577   7.2551310  25.6772685
  59.6200943   5.7966650  25.2742147  44.7864199  58.9748526  15.8540833
  44.2904663  58.1605530  15.9387743  45.5499125  58.7366915  15.3281665
  35.1274276  19.6891665  53.1138706  35.3430700  19.6764934  54.0463781
  35.0399232  18.7662065  52.8757095  47.6265526  28.7268591  70.6477594
  48.2526398  28.9996123  69.9770546  46.9251156  29.3763447  70.5989265
   2.0596942  43.7169647  19.9517310   2.4013452  44.4584179  19.4519806
   2.8337479  43.1973886  20.1687908  33.8194585  43.1409502  55.2315807
  32.8961778  43.3208275  55.4088593  33.8118196  42.6159859  54.4312143
  73.0555964  30.9205842   6.4237994  73.2571363  31.7948270   6.0901672
  72.1010399  30.9048629   6.4931333  59.3504906  79.1189957  26.4086199
  58.5951567  79.6903372  26.2698054  59.2576599  78.4341097  25.7463956
  91.1778304  57.1055325  74.7539759  90.3411862  57.5324353  74.5695591
  90.9371087  56.2452497  75.0977755   6.1619091  52.0644522  35.4903221
   6.5286845  52.4252605  34.6831512   6.7960775  52.2996235  36.1676383
  62.0731231  98.0054396  89.4901520  62.8730890  98.4817999  89.7123325
  62.3507187  97.0923441  89.4164980  74.7187948  33.4290147  31.1295009
  75.6331205  33.1759429  31.2567759  74.2547607  32.5999308  31.0132241
  34.3548131  57.1124077  26.9113135  34.9379253  57.8714657  26.9047761
  33.4794307  57.4818468  26.7953539   1.8458694  37.4523687  15.8653641
   1.1902807  37.0547438  15.2923620   2.2990662  38.0849552  15.3079796
   4.9702090  32.8356147  19.1342247   4.3413728  32.7006650  19.8431575
   4.5048401  32.5579596  18.3451927 103.7406203  96.5391224  78.0290759
 104.1599080  96.8659561  78.8250709 102.8041360  96.6633242  78.1833530
  44.1881609  26.6931510   0.0046137  44.1987562  26.4269328   0.9239870
  43.2792664  26.9429564  -0.1619410  60.6830454  23.4195566  54.4270563
  61.5609312  23.6288071  54.1080523  60.6158113  23.8806653  55.2631712
  98.7325284  68.7016373  81.7397297  98.7527606  68.2196873  82.5664986
  98.9305875  68.0432218  81.0737753  30.4582167  49.7381973  46.9117308
  29.5518279  49.7383022  47.2194433  30.9372616  50.2315664  47.5775623
 100.2145908 103.6447371  31.6687703  99.6675918 103.0931452  31.1095119
 100.8431361 104.0457163  31.0684562   9.8343623  29.7803235  58.0173111
   9.0152770  29.5172334  58.4369707  10.4226506  29.9812341  58.7451744
  32.1727228  83.2570839  38.7508535  32.8620052  83.2656765  38.0867386
  32.0531964  82.3306942  38.9600229 111.8365759  30.3593206  35.6030822
 111.0237876  30.7331467  35.9434652 112.3199040  30.0867343  36.3830304
  75.2240038  24.7272229   7.9186743  75.5447340  23.8255668   7.9381090
  75.7770538  25.1642585   7.2710890  36.5581989  44.6196604   9.8834085
  36.7074060  45.5294085  10.1409519  35.8121967  44.3398333  10.4138899
  19.5445490  10.2635849  27.2124457  20.3610015  10.0668859  27.6717329
  19.6983063  11.1159837  26.8050075  47.1405697  53.8324070  35.3555846
  46.8726969  54.4087029  36.0713768  47.8262758  54.3200827  34.8992753
  48.7467718  32.9044151   2.3252682  47.9051208  33.0058885   2.7697492
  48.9382267  33.7738132   1.9735265  33.6334705  77.9767227  21.0856032
  33.1691980  77.3404312  20.5417156  34.0463805  78.5711765  20.4592133
  55.8252573  10.8371854  50.0332212  56.3840008  10.1493394  50.3950310
  56.4208651  11.5685606  49.8702097  32.7234983  84.7017837  25.8669424
  33.2289457  83.9525438  26.1822128  31.8295383  84.3698240  25.7840657
  63.4564018  61.6511202  15.1953399  62.6747513  61.5119076  15.7300079
  63.7278509  60.7711315  14.9342585  37.5372958  34.3957949  42.4209976
  37.4018049  35.3148890  42.6515150  37.5901747  34.3938613  41.4652586
  42.6878786  31.9510007  25.6285024  42.1484900  32.6864910  25.3380704
  42.4837780  31.8570328  26.5589547  27.3094463  45.8843374  57.0947218
  27.6187778  45.0657463  56.7068386  27.6143765  46.5642929  56.4939690
  40.5337286  18.9726520  46.1293459  41.2589312  18.9638209  46.7540312
  39.7500539  18.8780940  46.6707754  63.4416580  62.5035524   7.7014208
  63.6759186  63.2723808   8.2212842  63.5168219  61.7698765   8.3115852
  42.8781176  44.2894840  21.7162251  42.0435953  44.7578335  21.6951108
  42.6922989  43.4499168  21.2957168   7.3150586   1.7643087  90.9874891
   6.4462899   1.6447942  91.3711317   7.8423404   1.0599964  91.3645268
  63.4087038  35.6150699  24.6399927  62.6706791  36.2056589  24.7908425
  63.5422373  35.1788139  25.4814672  56.1022997  18.8203490  28.4060335
  56.5905857  19.6288180  28.2505202  55.7419157  18.5897315  27.5497794
  16.0690486  10.3002059  12.6353323  16.4519548  10.0099480  11.8074656
  16.1840117   9.5560735  13.2263350  79.9296141  58.9602518  22.5494099
  79.5807123  59.7706175  22.1781802  79.3262720  58.7431431  23.2600975
  10.2450943  48.0128717  42.7311039  10.0958097  47.3674726  43.4220505
   9.4063240  48.4650660  42.6404619  37.0303988  51.6040373  33.2950974
  36.5738010  52.4427986  33.2300377  36.7982817  51.2716055  34.1621828
  80.5664158  21.0313368  50.7108450  80.9852219  20.7180071  49.9091816
  81.2570572  20.9932733  51.3725090  36.9327521  39.3981147  48.3850813
  36.3864684  40.1788330  48.4760952  37.5891328  39.4831324  49.0765762
  48.8988590  29.5952749   9.0149963  48.8529968  30.3361797   8.4106874
  48.0494452  29.1625881   8.9283514  64.3727323 106.1036509  75.3308702
  64.3686315 105.1481884  75.3883100  65.2406451 106.3193625  74.9896539
  42.5276852  40.6284952  29.0905094  42.8427649  41.1802530  28.3746052
  42.9832745  39.7954535  28.9692211  19.4037151   3.2928197  76.0689533
  19.5958137   3.6349981  76.9420183  18.9862680   2.4466054  76.2298668
  96.0324856  72.7876227  85.6554818  95.9903428  71.9137400  86.0437936
  95.4146764  72.7552062  84.9250746  67.1673632  36.2896967  31.4557433
  68.0107260  35.9091401  31.2104869  67.0564556  37.0304465  30.8597374
  23.5438251  33.3831096  26.1224389  23.3902407  32.5444722  25.6873155
  24.4883537  33.5207438  26.0506725  18.8337398  34.4886088  23.8163280
  18.4937847  34.6101117  22.9298210  19.7846723  34.5329165  23.7163520
  49.8803091  17.7543688   9.6293551  50.7289743  17.6037729   9.2130417
  49.2848873  17.9332638   8.9015490  27.7516270  44.3291521  17.5264680
  27.7005482  44.8437834  16.7210007  28.1718302  43.5109043  17.2616518
 104.0119645  87.9354137  90.8338182 103.1530711  87.9298466  91.2563092
 104.0018365  87.1689814  90.2604875   3.1838130   2.8184669  87.7392498
   2.5453424   3.5299222  87.6901329   3.8887500   3.1665437  88.2852704
   9.7372437  57.4117947  17.9625750   9.7757512  58.3645344  17.8786957
  10.4108822  57.0911407  17.3628902  40.9809017  47.4567032  13.9456367
  40.6166935  47.0379782  14.7255445  41.4414883  48.2263231  14.2799664
  45.9791613   1.3615045  30.6963873  46.4803934   1.8767789  31.3284397
  45.0644875   1.5582079  30.8986592  35.5300498  34.6900249  38.3604693
  36.2203431  34.5165277  39.0004921  35.3921032  35.6360650  38.4074950
  45.1251078  48.3688831  30.5991054  44.2767763  48.0440950  30.9009075
  45.3622580  47.7854919  29.8782396  49.2238379  36.1341476  35.8947539
  49.5356560  36.8851471  36.3997316  49.0263510  35.4680967  36.5532422
  81.4004707  42.7043915  28.2340264  81.0452175  42.8254271  27.3534727
  81.5116978  43.5931301  28.5716701  55.2714014  10.2436149  30.0075960
  54.4871902  10.5531144  30.4608655  55.9985447  10.6263614  30.4985094
  89.4257902  39.2833018  59.4949007  89.4322966  40.2389383  59.5491934
  89.2137359  39.0968037  58.5803032  56.8562412  26.9356084  42.7137852
  57.6505899  27.1662211  43.1955147  57.0298195  26.0587454  42.3714209
  51.6981983  51.5630722  10.1600945  52.1060514  51.0154152   9.4893050
  50.9820366  52.0059252   9.7048724  54.7081518  14.4472921  45.9681606
  54.7216034  13.5893881  46.3924837  53.9198923  14.8704743  46.3084459
  35.6705213  18.9898455  21.9285560  34.8464751  19.2389965  22.3470068
  35.9528470  18.2075632  22.4024320  38.0740213  10.7517736  79.7769320
  37.3942279  10.7380502  80.4506696  38.8938045  10.8269231  80.2653361
  54.5548773  46.8184900  25.6819272  54.5444775  46.3516378  24.8463607
  53.8276386  46.4406347  26.1764741  30.4489541  27.0179558   0.1341185
  30.4549074  26.3009739   0.7682588  29.5225716  27.1543932  -0.0644521
  26.8368006  49.4099236   7.3159796  26.5407419  49.9800348   8.0255979
  27.3814535  49.9739933   6.7669672  38.3318186  59.7532320  40.6865788
  38.5827613  59.0943480  41.3339806  37.5894260  59.3641853  40.2242661
  73.9984512  18.5498595  17.3778677  74.7754717  18.1851876  17.8015172
  74.2341900  19.4574237  17.1855533  68.9589545  49.9552076  91.8904844
  69.1098258  49.1165768  91.4544016  69.8363134  50.2899300  92.0760475
  13.2395600   4.6102302  88.8163922  14.0246677   5.1460235  88.9294049
  12.7906226   4.9985664  88.0654729  65.7823420  41.4434958  33.3924675
  65.5111456  41.5366507  32.4792290  65.5828714  40.5328989  33.6098576
  13.1816672 101.9742888  62.3036087  12.6414774 102.2078722  61.5487111
  14.0759562 101.9590633  61.9626654  43.2867765  24.9288058  24.4514441
  42.8869820  25.4754281  23.7749791  44.2086697  25.1863766  24.4536400
  56.7415810  27.6409674  24.5954776  57.6455259  27.3264503  24.6093774
  56.3345051  27.2337103  25.3601098  24.7339678  41.9084597   9.9991125
  24.4225454  42.3933983  10.7633638  24.4579196  41.0060263  10.1592636
  58.3035803  42.1366692  29.2471409  58.0727100  43.0635118  29.3095922
  57.5021458  41.6732836  29.4904661  61.2653255  35.8502221   1.1241222
  61.1126328  36.7284870   1.4727844  61.8959332  35.4588509   1.7285982
  67.5040007  33.0754542  41.0238791  67.7014542  33.7004256  41.7214870
  67.3910999  32.2394371  41.4761686  58.3205080  33.8125849  29.2756486
  58.3051968  33.9437056  30.2237010  58.5600185  32.8924680  29.1649508
  26.8711424  46.6980076   0.4441221  26.4656901  46.8261194   1.3016923
  27.7716327  47.0022917   0.5570722  27.6997948  43.2065773  59.4251776
  27.9689407  42.2897768  59.4822979  27.8495789  43.4435940  58.5099602
  16.2876606  29.6942067  20.8964300  15.4015100  30.0431395  20.9924173
  16.2269378  29.0854836  20.1602221  22.4867988  79.8741055  38.1336021
  22.2065592  80.7771301  38.2827592  23.3755612  79.8376417  38.4871578
  32.7798462  11.7483687  14.7611463  31.9830465  11.6980314  15.2891707
  33.3435035  11.0587502  15.1117873  45.5241013  70.5379868   2.4687718
  44.7748089  70.2359247   1.9553970  46.1906004  69.8632097   2.3396009
  36.6213369  38.5030055  29.0843225  35.9134388  37.9494262  28.7546849
  37.3822093  37.9232860  29.1193962  44.4479465  10.5584562  43.8921976
  44.3001747  11.3894439  44.3437004  44.5747328  10.8031654  42.9755354
  20.6826997  33.6326957   1.7162883  21.1093283  34.3057561   1.1859958
  20.3380179  34.1067815   2.4730365  70.3449604 104.1291922  91.7289906
  71.0218474 104.3484419  92.3692933  69.5544240 103.9964216  92.2521084
  34.7734118  45.2444267  13.9021325  33.9568114  45.7414341  13.9508760
  34.7649193  44.8549414  13.0277979  15.7890058  43.3264446  35.9795928
  16.2713766  43.8308525  35.3245163  15.2536666  43.9759254  36.4354634
  26.6761899  47.7671766  36.8146944  25.9610128  47.2406435  36.4575958
  26.2451530  48.5387182  37.1823430  62.2889757  77.7969646  24.2553997
  63.2437563  77.7529287  24.3072724  62.1145439  78.2483625  23.4295392
  75.3950357  33.3704662  38.8780427  75.2771044  34.3177700  38.8077521
  75.0970411  33.0288005  38.0350161  10.7447385   7.5257413  89.6994818
   9.9056243   7.1959226  89.3780205  11.1111020   8.0099647  88.9595262
  49.6981049  56.2900066  15.4321635  50.3738022  55.6161070  15.3578436
  49.9566936  56.9593525  14.7986472   7.6755947  47.6397753  37.3109698
   7.6274008  47.1219826  36.5073514   7.3163050  48.4930706  37.0680070
 108.9495863  28.0014300  34.4042587 109.1247474  28.5459280  35.1717710
 109.7531407  28.0516195  33.8865590  29.3800092  51.3848019  55.1207447
  29.1434336  51.0262346  54.2653513  29.6337700  52.2897291  54.9392462
 102.9503368   6.8764979  15.5250645 103.6511408   7.5210291  15.4266560
 102.4623691   6.9258630  14.7030640  52.3694706  33.0134845  36.4011478
  51.9993496  32.6179218  37.1903062  52.9245377  33.7223125  36.7262602
  51.3045740  41.3492107  26.9513750  51.3646603  41.9052172  26.1745358
  50.8316803  40.5720472  26.6536808  26.8308997  42.6227522  30.7420635
  26.3862729  43.4704208  30.7422256  27.7056170  42.8111744  30.4020619
  69.5604086  18.1330502  33.0014753  70.4957724  18.3092213  33.1029105
  69.2148161  18.1527483  33.8938928   3.7975347  43.8678265  16.5749395
   4.1879341  43.4523058  15.8060694   2.8688431  43.6416674  16.5237916
  44.8743391  19.4654214  41.1828470  44.0921402  19.3038344  40.6553173
  44.7813320  18.8802278  41.9345999  99.6662327 104.7883289  91.9671097
  99.9566266 104.0135592  91.4858207  98.8573405 104.5130365  92.3985513
  50.7358503  43.9616346  16.6956520  50.6681538  43.0105543  16.6113937
  50.7251453  44.1198206  17.6396298 102.9470062   5.4077578  17.8818941
 102.1857929   5.6027675  18.4284782 102.8537750   5.9873223  17.1258235
  43.8964558  21.6213870  44.5843744  44.4675303  21.1260319  45.1715088
  44.4720984  21.9069362  43.8749170  15.0816381  63.9052963  37.8061032
  14.5740187  64.2372894  37.0656061  15.9831262  64.1628647  37.6132035
   7.3408174  28.4479063  83.4809113   7.5782203  28.2525461  84.3873906
   6.7657422  27.7273767  83.2233203  68.1468102  83.1582683  86.9476325
  68.2449695  83.4264796  87.8612292  68.4028289  82.2359722  86.9399464
   0.0900401  53.4755802  20.4273224   0.6395411  54.0576839  20.9521437
   0.6780700  52.7703094  20.1570511  37.1479678  57.2642994  36.9676018
  37.8713417  57.8909588  36.9837379  37.4851990  56.4972591  37.4303746
  67.3732471  50.3716326  31.2946415  67.9192543  50.4139566  30.5095863
  67.1422529  51.2828398  31.4751410  30.4231858  52.7798367   6.7022759
  30.1425409  53.5094500   6.1498874  30.8926344  53.1942749   7.4262148
  35.8837247  21.3887501  20.1458073  35.6417060  20.9905672  20.9819341
  35.0559497  21.4745831  19.6728873  40.3898525  15.4097235  29.0047288
  41.2209654  15.6879830  29.3895149  39.7562909  15.4925859  29.7174430
  77.0675084  86.6934293  88.2114882  77.1880361  87.3261445  88.9195681
  77.6271984  85.9551471  88.4521461  60.3517628  46.1230707  30.8721995
  60.6192112  45.7423401  30.0356913  61.1485100  46.1193705  31.4026880
  87.3096275  42.3720026   7.8513509  87.9286194  41.6968012   7.5735337
  87.4967670  43.1177187   7.2811633  40.3287792  33.4765196  68.5350180
  41.0093403  32.8556037  68.7948895  39.8238540  33.0127501  67.8670406
  47.8281879  57.6592731  25.5278468  48.1448412  56.9503641  26.0876799
  46.8751049  57.6195526  25.6071115  51.9713926  39.3131638  22.4649358
  52.4133348  39.5452714  23.2816625  52.4361944  39.8098946  21.7915487
   6.6446780 103.4641487  37.8193712   7.1242093 104.0055338  37.1923304
   5.7226323 103.6281145  37.6214242  67.5970078  65.4388189   4.1644987
  68.0134678  66.2366533   3.8385296  68.1313419  65.1791906   4.9150366
  13.4186614  42.3072577   9.1482717  13.5219944  42.4780607  10.0844228
  14.1001451  41.6665411   8.9450538  28.2368994  55.8263206  37.1415138
  28.6597705  55.6466722  37.9812407  28.1021595  56.7739868  37.1390915
  21.3191056  38.1659722  15.6924164  21.5819192  39.0554309  15.4557204
  21.9733262  37.6043057  15.2767777  55.6544256  46.0244703  12.7256203
  56.0287046  45.2978992  12.2273767  56.2781143  46.7411804  12.6091218
  77.6204440  73.5211199  87.2249723  77.4525568  74.3619841  87.6504082
  77.9738423  72.9669529  87.9208452  35.1834440  43.6701679  40.3199148
  34.2979336  43.4064388  40.5700159  35.7364202  43.3647394  41.0390568
   4.8472881 102.8153208  33.9659023   3.9817475 103.0945400  33.6673903
   4.8402690 101.8635825  33.8640380  49.6438360  38.4677458  31.1367559
  49.6714258  38.1870651  30.2220464  50.2443743  37.8742003  31.5876365
  26.9494343  40.4609585  23.7327266  27.6340938  40.7624197  24.3298841
  27.1618247  39.5420623  23.5691786  29.7633362  15.7455969  61.5391397
  30.1452684  15.0359058  62.0555687  30.3456211  15.8328295  60.7844448
  54.7690520  75.0712221  90.8971066  55.6938001  75.2992957  90.8019464
  54.7569522  74.1141027  90.8947823  28.0635262  26.8153119  46.7925930
  27.8983665  27.0641565  45.8831787  28.9973283  26.6065121  46.8179655
  57.4228239  22.6902747  59.4598389  56.6843128  22.6579189  58.8517427
  57.7432680  23.5902429  59.3997955  63.0011293  72.5840109  90.9164727
  62.7716920  73.4837049  90.6837881  62.3559639  72.0459955  90.4576347
  59.7710800  24.1784596  15.5778909  60.4573631  23.9477730  14.9517655
  59.0308714  24.4471622  15.0337207  43.0579710  55.4507446  39.8549891
  42.5068808  55.0020838  39.2137146  43.2721567  54.7767210  40.5000067
  60.7378006  31.8146133   1.2680461  61.4628601  32.3996472   1.4877182
  60.2739763  32.2630787   0.5609571  39.1254997  37.4152493  77.8924894
  38.8808227  36.8866301  77.1329308  39.8135853  36.9093609  78.3247471
  42.5527334  38.6537647  48.4894943  42.5074816  38.9923620  49.3836594
  43.1667042  37.9212594  48.5415459  41.1375666  33.4927082   1.0698007
  40.2439833  33.2140684   0.8695513  41.5640354  33.5617018   0.2156352
  63.8369176  88.2552188  92.1530599  64.3425295  88.9175528  91.6819956
  64.4483420  87.5288671  92.2747365 106.7761759  95.3540039   3.7794638
 106.3560967  96.0855484   4.2318106 106.0713242  94.9476910   3.2751581
  42.1107435  14.8666358  26.7235923  41.5034246  15.0673521  27.4357057
  41.7898083  15.3810859  25.9829354  28.3792377  36.7284513  37.0072651
  28.6328244  36.0272837  36.4070272  27.7649856  37.2635293  36.5046573
  42.3653412  19.6676314  17.0145726  42.0897532  20.5840707  17.0350718
  41.6051626  19.1964984  16.6734147  54.5781374  35.4062986  28.1269479
  54.0821266  35.7195044  27.3705721  54.7145987  34.4746494  27.9547787
  36.0924292  41.8195772  19.4857740  36.6785312  42.3855543  18.9833939
  36.3969374  40.9318876  19.2973113  34.5948887  35.6122947  49.4475651
  34.2363000  35.4017901  48.5853958  34.8734021  34.7685695  49.8036432
  51.5295172  18.2626963  45.6306076  52.3471403  18.6723304  45.3479004
  51.7794991  17.3709023  45.8723545  22.6802635  18.0485904  20.4790139
  22.7686810  17.1563101  20.8140516  23.1523252  18.0396581  19.6463609
  30.3138232  32.2051620  29.2648935  31.1208272  31.7231798  29.4456315
  30.0040269  32.4851084  30.1262236  71.6772410 105.5467432  80.7011831
  71.5752646 106.2664764  80.0784338  72.1636745 104.8789137  80.2178407
  43.9162922  38.5433507  25.7027984  43.6424398  37.6502585  25.9116650
  44.7889996  38.6225271  26.0879517  24.4931245  30.9700727  55.0439548
  24.4644475  31.9160223  54.9004698  24.9937463  30.8656216  55.8530903
  69.6679756  80.1207369  90.2952373  69.4437572  79.2133110  90.0890015
  69.2956158  80.2677887  91.1646946  40.3624392  57.1239805  33.0528307
  39.5970917  56.5571880  33.1488490  40.3316212  57.6995468  33.8170362
  60.4144192  19.1246319  32.3027110  61.2272263  18.7414491  31.9729376
  59.7962761  19.0360796  31.5772510  59.7948500  93.2804816  80.0131786
  60.4722187  92.6106566  80.1066637  59.7913143  93.4887856  79.0789259
  19.3300843  44.9529791   7.8306657  18.4380507  45.1985502   7.5853020
  19.4632101  45.3588581   8.6872703  63.9352369  38.8331723  11.0366583
  63.8491154  38.5776138  10.1182330  64.0959358  38.0111217  11.4999533
  88.3131167 105.6575745  80.7961524  87.5277659 105.1530951  81.0081780
  87.9953000 106.5504759  80.6621600  51.6542864  57.3339462  12.0429778
  51.0865164  57.8056622  12.6523638  51.6467237  56.4304781  12.3590755
 108.1370354  51.6729641  14.0557826 108.2768154  50.8509159  13.5857427
 109.0112305  52.0544434  14.1363192  38.9174724  53.7907362   6.1385256
  38.6472154  54.6533632   6.4532721  38.9090967  53.2373762   6.9195235
  28.5397124  81.2939930  37.8250480  28.3090496  81.6827583  38.6687803
  29.4504905  81.0185623  37.9292274  33.4578681  40.4024553  15.4923558
  32.7891088  40.7042217  14.8775959  32.9902315  40.2932119  16.3203740
  17.4038196  31.8769169  44.1017389  17.1089435  31.5904617  43.2373190
  18.0774689  31.2427807  44.3473005  36.2096310  21.3184452  24.2188311
  36.1979914  21.9788718  24.9116039  36.2587166  21.8235302  23.4072208
  82.0544287  78.3862775  60.3275550  81.8632695  78.4296268  61.2644685
  81.7052409  79.2042797  59.9737633  46.0831738  25.2252746  30.5106592
  46.0824108  25.8892727  29.8212099  45.6563044  24.4664741  30.1128697
   6.0311364  10.6300323  87.0784360   5.6447887  11.3954179  87.5040567
   6.0792731  10.8694618  86.1529160  53.4518671  49.2989683  30.8794475
  53.4254456  49.0119934  29.9666619  54.1803360  48.8106871  31.2630391
  52.1547031  81.6176224  22.5006437  52.9316854  81.2989426  22.9599595
  52.4528694  82.4032116  22.0421886  64.2541838  57.4942636  12.4520516
  63.4736443  57.6716375  11.9271481  64.4774055  56.5856791  12.2498548
  50.5760765  30.6151962  35.0630045  51.4990759  30.6974816  34.8231411
  50.1682854  31.4115667  34.7228074  46.3197374  42.5503731  38.9891171
  45.6775951  43.2593060  38.9531064  46.0248756  41.9966269  39.7120667
  82.2115707  21.3552666  45.6282759  82.9118252  21.7740107  46.1288118
  81.7920303  22.0742249  45.1557112  92.8822994  78.4102964  27.2135234
  92.3680973  77.8724813  26.6113758  92.5361824  78.1972218  28.0801439
  87.2014809  30.2197099  32.1231914  88.0867863  29.8663759  32.2105503
  86.6763210  29.7040319  32.7351594 110.7472512  65.8697861  78.1845641
 110.2406069  66.2473600  77.4655485 110.1958939  65.9939223  78.9571107
  31.2651372  36.7023659  34.0468836  31.4916444  37.5999045  33.8032651
  30.3879023  36.7706108  34.4237590  67.0773268  66.8075609   0.2885368
  66.2242126  66.4889765   0.5833837  66.9434309  67.7426529   0.1339359
  38.0293298  31.1543441  11.1309278  38.5415530  31.9112396  10.8463788
  38.6839414  30.4952765  11.3618934  60.4897976  35.5963230  37.0495105
  60.0189400  35.6508732  37.8811049  60.2973270  34.7175503  36.7224884
  49.3741369  45.6191158   8.3190566  49.9995899  45.2887249   8.9639479
  49.2124653  44.8749685   7.7391112  40.2776527  28.7986565  21.0645509
  39.5577717  28.1854224  21.2126994  40.0930738  29.5312023  21.6523743
  74.9965525  70.5974293  33.6391115  75.4335976  69.8331976  33.2633877
  74.3402290  70.8427095  32.9869580  40.4279804  36.7387176  22.8183079
  40.2874660  36.5739393  21.8859267  40.6411839  37.6705813  22.8673768
  44.7121525  33.5642433  43.7800598  44.2512465  32.7713561  43.5059643
  44.2092085  33.8873076  44.5276642  81.4215374  39.2495608  15.3689098
  81.3650608  39.9352503  16.0343969  80.6237793  39.3529916  14.8501408
  50.9067297  87.5565910  23.4600067  50.0130081  87.2235107  23.3790445
  50.8882284  88.1036663  24.2452407  63.5839462  28.0018783  33.1692171
  63.3976650  28.6698031  32.5093627  64.4069815  28.2830667  33.5689378
  44.5101404  32.3985744  10.7669508  44.4330406  32.7711058  11.6453052
  43.7855625  32.7877331  10.2772832  57.1451235  17.1448720  13.9753354
  57.0213795  16.4952099  14.6673322  57.8290749  17.7245736  14.3105757
  84.4130465  95.8708685  72.5144828  85.2876946  96.1378830  72.7971924
  84.0238902  96.6679447  72.1546805  67.1268269  79.7123759  84.6915329
  67.5983259  79.5482939  83.8748330  66.4071223  79.0813511  84.6835262
  44.6315384  13.7717187  32.7578592  44.5044231  12.8334606  32.6173425
  45.1354694  14.0616751  31.9974566  52.7779675  45.3304482  15.7105553
  52.6790953  46.2316704  16.0175586  52.1438599  44.8311758  16.2252033
  30.0853776  16.6214960  70.7529295  30.6447982  15.9465330  70.3686059
  29.3083333  16.1480014  71.0499728  36.3309193  22.7076650  50.0428629
  36.8308520  23.0009699  50.8046198  35.5775666  23.2972121  50.0093174
  35.8495044  30.1802843  77.2087300  35.7836961  29.6690862  76.4021433
  35.8930921  31.0896318  76.9130850  29.4010711  43.2990217  73.0874109
  29.0669084  42.5373220  73.5611010  28.6446881  43.8795900  73.0033922
  91.5533778  60.4665100  82.9674077  91.2767026  61.1563598  83.5705561
  90.8410641  59.8275542  82.9913497  40.0568151  82.4491787  10.2347708
  40.2112818  83.1837559  10.8287120  40.4060030  82.7437592   9.3936265
  22.4630833  41.0433149  41.0170412  23.1430340  41.5649986  40.5907249
  21.7743063  41.6737413  41.2277079  34.4349431  25.0435369  64.5029724
  34.8616027  25.8566301  64.2326534  34.3319272  25.1306837  65.4506147
  91.2974262  45.5444288  23.9259410  91.8430138  44.7828960  23.7293935
  91.8129730  46.2925768  23.6247420   4.4688603  23.0033660  16.1900878
   4.6457452  22.3997521  15.4685664   5.2800190  23.5016704  16.2898207
  33.9243436  84.1570568  32.2232389  33.7305188  84.8142529  32.8916335
  33.0688334  83.9198875  31.8653464 104.8530576   0.3832023  84.4811482
 104.2522261  -0.3321631  84.6896816 105.1650498   0.1842992  83.5983509
  42.7009583  47.0600462  31.1891866  42.2614336  46.7668009  31.9873476
  42.1312094  46.7637825  30.4793620  29.8575473  63.1768513  16.8001056
  29.4066787  63.7021208  17.4611974  29.1754127  62.9506063  16.1678588
  10.7344579 105.0592071  37.0715070  11.4716005 104.5914403  36.6790175
  10.6751489 104.7097844  37.9606748  99.5507240  57.0886230   9.8551959
  99.3806744  56.4612722   9.1525292  98.6945438  57.2361565  10.2569568
  55.1401854  48.9014673  28.1113076  54.9457073  49.2157412  27.2283316
  55.9189749  48.3551931  28.0049920   9.9302608  75.0927544  15.5499840
   9.0275735  74.9342489  15.2738249   9.8597264  75.3297520  16.4746940
  81.2151241  21.2018108  14.2204511  81.1387253  20.2995443  13.9101088
  82.1551418  21.3816786  14.2048514  76.7670584  53.4736013  28.4955001
  77.3570395  53.3591938  29.2405272  76.6917276  54.4223261  28.3931184
  75.4739571  33.4245181   2.2627468  76.2668037  32.9361415   2.0411366
  74.8199511  33.1170344   1.6350803  80.8165264  70.5743313  19.9169123
  80.2308655  70.3339672  20.6348681  81.0068035  69.7464943  19.4756567
  55.7126999  47.2010803  16.7408371  55.4826689  48.1018972  16.5131426
  55.4732704  47.1187687  17.6639462  57.3918200  58.5865545   7.8061932
  58.0440283  59.2832088   7.7317953  56.9320393  58.5982609   6.9667315
  89.8014545  34.7495699  11.3089085  89.6051502  35.0263047  10.4138589
  90.3880405  34.0003729  11.2047613  76.1975908  29.5871878  49.7497988
  76.3631344  30.2319932  50.4375839  75.3800631  29.1631818  50.0107479
  87.8618905 100.0839966  85.6750954  87.5447127 100.9611385  85.8901579
  88.3745381  99.8206156  86.4393324 107.2809312  94.0625113  86.8365270
 106.5550372  93.5685366  86.4553517 108.0661723  93.6529654  86.4733368
  60.4491282  62.7505112  12.3319793  60.0833893  62.7917099  11.4483690
  60.8262300  61.8729401  12.3944330  88.1738803  82.1500104  91.2619306
  87.9533908  82.1402209  90.3305228  88.5968634  82.9976671  91.3990333
  81.7297312  68.3296924  91.8119394  81.4163729  69.0925174  92.2978779
  81.0054967  68.1033617  91.2284227  90.7883835   8.1827402  25.8855581
  90.7880878   7.3103130  25.4917288  90.1125431   8.1403589  26.5620780
 107.7716014 101.5761822  91.7634715 107.1136710 101.1991184  92.3475839
 108.2943055 100.8274429  91.4764111 101.4153004  90.8474159  12.8576374
 101.6189575  90.8351898  13.7928414 100.8742809  90.0698376  12.7201438
  94.2338753  40.9715891  22.7561307  93.4404373  41.2711048  22.3123050
  94.1947079  41.3822842  23.6198592  37.7294326  50.0438976  17.9523718
  38.5651565  49.8357773  18.3700848  37.6564741  50.9956455  18.0236840
 103.4967419 101.6898506  88.6713079 103.6009499 102.4713009  89.2141742
 103.1506297 101.0272902  89.2691830  83.0219552  98.7539023  91.0482663
  82.5883004  97.9006308  91.0584553  82.6390311  99.2082327  90.2978103
  14.6881007  12.3712509  68.1744039  14.3508386  11.5348451  68.4952033
  13.9118432  12.9241579  68.0852163  83.2361412  48.9158487  28.1959462
  83.0674839  48.0015516  27.9682493  83.6538696  48.8752985  29.0562344
  50.5306959  53.0775118  20.7988071  51.1154747  53.8322592  20.8667731
  49.6900034  53.3954763  21.1280012  42.3157644  24.2990518  28.6356783
  43.1427813  24.7680950  28.5248971  41.6822958  24.9803901  28.8609004
  82.2112465  62.1425676  41.5025330  83.0693913  62.2247410  41.9185638
  81.7331219  62.9227161  41.7835903  35.2301836  40.1271391  11.4175141
  35.5128026  39.8281598  12.2817886  35.7438040  40.9190083  11.2582266
  34.1540122  61.2876940  39.3286967  33.4614372  61.1362171  39.9718332
  34.8938966  61.6082621  39.8444867  42.6161336  10.3293197  86.7106176
  41.8429946  10.2386730  86.1536014  42.2892617  10.7455986  87.5081706
  95.2545973  76.2029355  79.4720328  95.5860802  75.8091682  80.2790630
  96.0407731  76.4634793  78.9921618  79.4842574  87.3442143  90.9010318
  78.7038895  87.8630179  90.7058254  80.2157685  87.9340332  90.7187286
  58.3803654  42.3144770  17.2874629  58.0530262  42.3607349  16.3891637
  58.1078672  43.1416893  17.6845717  50.7821702  11.7791097  53.6485327
  51.4592504  11.5154378  53.0254138  50.2020787  11.0199945  53.7073386
  26.9885397  60.3063393   8.2534987  26.3602805  60.2953434   8.9755809
  27.6492262  60.9453964   8.5205698  33.1624841  10.5854146  81.3319290
  33.2492208   9.6327751  81.2974835  33.9773845  10.9140031  80.9521938
  84.9117470  10.8022952  26.8163824  84.6620083  10.4610896  25.9576416
  85.5343819  10.1602137  27.1573949  59.9971914  21.4702463   9.8916143
  59.3036032  21.6934538  10.5123758  59.9193859  22.1266818   9.1993213
  21.5308666  51.4317083  18.1421137  22.0870209  52.1346664  18.4779322
  21.4814281  51.5946627  17.2001839  56.3339329  55.2460766  11.3685369
  56.7776346  55.6914568  10.6467366  55.5199623  54.9200535  10.9846270
  52.1781540  29.1763902  15.1470315  51.8526459  29.9049616  14.6183920
  52.2953892  29.5483613  16.0211742  80.9238240  83.8680833  81.7752719
  80.9521338  84.2686527  82.6441646  81.7744919  83.4393995  81.6813302
  58.8841105  33.4227920  32.9766965  59.2826319  34.1783261  32.5447512
  58.0858564  33.2542086  32.4760985  49.4110394  66.4900494  22.6409006
  49.2051506  66.4578915  21.7066574  49.6035290  65.5821323  22.8751302
  55.0062323  62.1353245   9.5113248  55.6672001  62.5503731  10.0654769
  54.3495226  62.8172588   9.3701494  38.3850741  44.0589857  12.6395762
  39.0860701  43.4114885  12.5648546  37.8638697  43.7626743  13.3857524
  41.1270761  48.4682941  26.5865636  41.6959476  48.2975197  27.3371983
  40.7863235  49.3495512  26.7398763  82.5264069  96.6740292  83.0622977
  83.1701752  96.5976303  83.7665427  82.7599093  97.4854057  82.6113266
  48.2698202  41.2670565   4.0915975  47.5987482  41.2688684   4.7741580
  47.9445362  41.8821573   3.4342730  31.0592961  28.7290812  29.0866017
  31.6358638  27.9655099  29.1142488  31.3094592  29.2459559  29.8524261
  76.8769428 106.3899916  89.3850589  77.8206345 106.2417334  89.3242807
  76.5191623 105.5460423  89.6606875  12.5276565   0.4330413  76.4360380
  11.7115640   0.4172437  75.9360659  12.3288726   0.9715097  77.2020459
  61.8504095  37.2569156  32.6284504  61.5753698  37.6675534  33.4481835
  62.0159292  37.9908276  32.0366645  89.5381641  42.9032469  16.6118300
  90.0111961  43.5501528  17.1352637  88.6939621  42.8091145  17.0530832
  59.1919041  37.8673315  29.0510249  59.8055363  38.5924959  29.1686010
  59.7465706  37.0882106  29.0116310  22.1844983  64.0098619   4.0620047
  22.8470278  64.6917248   3.9508644  21.3699174  64.4895935   4.2121533
  77.6429319  71.2530231  11.1976123  77.9615688  70.3808832  11.4301419
  78.4153366  71.7089748  10.8633459  41.2902641  22.1689391  41.3044071
  40.8361959  21.4907146  41.8044758  41.5260649  22.8294253  41.9558573
  64.2519188  59.2284393  23.4134865  65.0882912  58.8773966  23.1077528
  63.6336899  58.5063457  23.3012295  24.3151903  39.7614312  44.8581219
  24.3817139  40.5950975  44.3924952  24.9106956  39.8542500  45.6017542
  29.1924882  55.0133705  59.5036888  29.2281651  55.4184103  60.3702354
  29.4415212  54.1016102  59.6550417  80.0500298  48.5539865  11.0287666
  79.4511747  48.7856960  11.7386365  79.5232868  48.0171442  10.4366720
 100.7179902  26.6487424  48.2307375 101.1118338  25.8070056  48.4600723
 100.0636122  26.4338319  47.5660312  72.4199247  35.0554919  30.1780915
  72.9577160  34.6127033  30.8345604  72.8987837  34.9384117  29.3575931
  34.3625450  70.9232473  23.4279466  34.2798829  70.3019190  22.7045202
  35.2996755  70.9415388  23.6220694  63.9962912  44.2376804  29.8956752
  64.6374083  44.1010284  30.5931878  64.2471743  43.6140633  29.2142129
  19.7622132  53.1894112  45.4484415  20.6471968  52.8303051  45.3845835
  19.2493081  52.4913883  45.8557796  91.1787698  88.0304521  72.7469707
  91.6136595  87.1797293  72.8050638  90.8550021  88.0729907  71.8471968
  42.8848600  70.2574396   4.4972035  42.7315378  69.7894049   5.3179753
  43.7322760  69.9338007   4.1916248  42.2676945  30.5717587  28.2745600
  41.6851091  30.1046562  28.8734269  42.4735689  29.9319744  27.5929999
  65.4232025   2.6118499  18.9450479  64.8573589   3.3583367  18.7480509
  66.1930799   2.9984143  19.3622923  63.8137674  44.7069263  13.7920475
  64.5193338  44.2678833  14.2670774  64.1899920  44.9061203  12.9347205
  65.9590960  64.4476271   6.7144716  65.8840179  65.0813293   6.0010195
  66.2374353  63.6376381   6.2870681  64.3322039  51.7170382  31.6431808
  64.5943117  51.7150068  32.5637937  64.8468685  52.4213934  31.2491751
  20.6409097  23.0859661  33.5109353  20.5394387  22.1629047  33.2787871
  20.0856209  23.2014561  34.2820048  38.9682841  44.0909624  33.2808805
  38.5156488  44.2377090  32.4503279  38.5574651  43.3054447  33.6420131
  67.2673512  34.6472740  18.6494172  66.7544508  34.4986773  19.4438279
  68.1488943  34.8433995  18.9666653  73.8951397  43.6271048  15.7574344
  73.6574316  43.7710762  16.6734028  74.5728159  44.2795372  15.5804622
  99.7249126  57.3693705   6.8218130  99.8315144  56.4427376   7.0367920
 100.6004429  57.7417994   6.9265330  40.5992508  27.4643755   9.8994184
  39.6696806  27.5155139   9.6769059  40.6572819  26.7382979  10.5204475
  46.9493675  49.8222637  25.5109620  47.6407003  50.3545809  25.9045768
  47.1954155  49.7541857  24.5884347  37.7712035  37.5979686  20.3457427
  36.9320273  37.1874523  20.5542970  37.5652385  38.2254815  19.6528959
   5.5416774   3.6608379  85.9874118   5.8773708   3.1522100  86.7255467
   4.6283960   3.8369625  86.2135250  45.8405161  80.6348038   2.9268783
  45.8791208  79.6885824   2.7875593  44.9104977  80.8199406   3.0573463
  33.6809396  18.5343425  91.3749320  34.3939113  19.1617267  91.4944747
  33.6121034  18.0864923  92.2180940  27.5188994  66.5592575  52.0614147
  27.4353051  67.4619961  52.3684978  26.9336700  66.0579491  52.6292419
  12.1180487  67.4569893  24.0940928  11.9805670  67.3674488  23.1510568
  11.6489196  68.2574224  24.3295932  54.3485308  67.5013351  14.3535435
  53.7713194  67.7762127  13.6411500  55.1373529  67.1841049  13.9138222
  19.6204185  11.5030258  73.9417291  19.0497779  11.4092033  74.7044874
  19.0322732  11.7648046  73.2333565  33.4180713  45.7705975  30.7600284
  32.5151968  45.7042789  30.4491425  33.8968015  45.1204872  30.2458215
  85.5088806  72.2935724   5.2185708  85.5504608  72.5123644   4.2876405
  86.3389301  72.6089382   5.5760396  10.4409742   9.3271272  92.1317585
  10.2443313  10.0428693  91.5273753  10.0853728   8.5480564  91.7041739
  19.8718894  33.0051970   8.7506819  19.7011864  33.5611343   9.5109630
  19.9167216  32.1182323   9.1077727  59.6053075  15.8043926  83.1980968
  58.8251352  16.3562601  83.1433046  59.2637395  14.9126880  83.2646054
  52.6614532  89.9288409  81.8351031  52.5291070  90.4947203  82.5956941
  51.7925212  89.8494499  81.4415467  37.3562145  39.5796776  18.4823942
  37.1260619  39.1357899  17.6661682  38.2967997  39.7417712  18.4099042
  16.9229960  64.7491074   1.6048275  16.0162389  65.0503635   1.5476754
  16.9179261  64.1076040   2.3152365  28.5125041  47.6014328   2.8874481
  29.1691399  48.0100060   3.4514752  28.9395809  47.5327015   2.0335668
  20.8184433  54.5366430  35.4043531  21.6262817  54.9870968  35.1579452
  20.1855111  54.7966194  34.7349930  68.0140305  11.7030776  30.5619001
  68.7596893  11.3665700  31.0588741  68.2431459  11.5406334  29.6468306
  88.9491272   9.6372235  19.7153997  88.2548714   9.0154195  19.9335492
  88.5186195  10.2950275  19.1693366  49.0576410  52.6174259   1.8424749
  49.9040413  52.6222897   2.2894889  49.1110563  51.8783855   1.2365058
  42.4005270  40.5176401   4.6548611  43.1092596  40.7721901   4.0639856
  42.6953888  39.6930480   5.0413036  74.5251083  32.6182270  14.3470550
  75.4781771  32.6080918  14.2587554  74.3640327  33.1177473  15.1475322
  21.3879585  40.2506113  22.2857618  20.5348229  40.6775379  22.3640156
  21.3334894  39.7544742  21.4689922  96.7383194  49.7348642  16.1525631
  96.9843483  49.6452141  17.0732498  95.8184624  49.9986458  16.1750436
  17.5332212   9.1385334  82.7110595  17.3615646   8.2395332  82.4307621
  16.8301629   9.3347232  83.3302951  64.4363877  69.2260438  78.8844872
  64.2104909  69.3015295  79.8115814  64.6557423  70.1188343  78.6179531
  96.2711048  38.8147807  32.1532607  95.4430294  38.3740377  32.3436666
  96.8952560  38.1024146  32.0146894  62.8772351 101.9395798  56.0503590
  63.1056282 101.0128277  55.9782541  62.2532770 102.0884674  55.3399074
  40.6867838  30.6597590   6.9945824  41.3322067  31.3662219   6.9706649
  39.8578596  31.0989833   7.1848422  71.9996214  40.6161833  16.0409379
  72.8568268  40.3811455  15.6857157  71.4385128  40.7088232  15.2709985
  98.0524489 101.2877482  77.4484146  98.4353778 100.4194897  77.3230136
  98.6672684 101.8845671  77.0217645  75.1107121  49.3345642  29.7120523
  74.6569014  49.2040873  28.8794303  75.0117826  50.2689171  29.8948979
  48.3129978  45.4530859  31.2433887  47.8573370  44.6423101  31.4697742
  48.7790251  45.2476454  30.4329300  94.1218278  98.6408728  88.0797136
  93.7674662  99.5218676  87.9592857  93.9542195  98.4390610  89.0002632
  26.6069603  48.0769682  55.5741930  26.7341185  48.6762953  56.3096333
  26.1312199  48.5935307  54.9237585 107.8718875  22.1632116  69.2238725
 108.2792161  22.3321216  68.3742941 107.2648308  21.4416854  69.0592230
  60.2562806 105.3292912  82.0879853  61.0853597 104.8547524  82.0273912
  60.0172373 105.5108326  81.1790681   6.1914252 103.0130833  78.2134545
   6.4296721 103.6326521  77.5238085   5.2658461 102.8254145  78.0575407
  56.7640877  67.6440001  26.6037726  55.9246635  68.1039715  26.6088486
  56.9268942  67.4528837  25.6800842  45.2510452  53.4113884  31.8144226
  44.7478294  52.7647495  31.3195848  45.4456043  54.1005707  31.1792779
  50.3078461  57.2615623   9.3137687  50.2232361  58.2102537   9.2186117
  50.9065962  57.1473312  10.0517929  89.3080185  10.0537555  92.0982978
  89.9826429   9.6041028  91.5894491  88.8322220  10.5784147  91.4544176
  77.5645113  57.7486610   8.2744676  78.3584499  58.2564735   8.1070828
  77.0749807  58.2717848   8.9092416  93.4316155  78.3707421  92.3765123
  94.1381356  77.9631084  91.8756134  93.8188550  79.1724699  92.7279587
  50.3375387  30.9646297  22.1877193  49.9639940  31.5301180  22.8636789
  51.0181713  31.4985776  21.7779994  11.1901546  37.6825905   8.7420565
  10.8944678  37.5572515   9.6437722  10.8008802  36.9537497   8.2588494
  79.1072747  69.3630581  83.9598579  78.2885405  69.6706324  83.5708791
  79.2915675  69.9913126  84.6581149  69.0383053  65.0241852  30.9756279
  68.3590937  65.1666069  30.3163743  69.6685743  64.4439220  30.5486751
  79.1760302  20.9202695  11.8441463  78.3747482  21.4316559  11.7315924
  78.9285421  20.2160597  12.4433708  75.3503275  36.0183835   6.0121334
  75.1664448  36.1095357   5.0771952  74.8593378  36.7298055   6.4232767
  45.4995823  56.1664629  26.4055085  45.2802324  56.8119049  27.0774627
  44.6934748  56.0639811  25.8996224  36.7668128  50.2599192   4.8028201
  36.2462568  49.6070576   5.2708232  36.3880849  50.2831030   3.9240378
  84.1122341  64.5470810   9.3509912  83.5227776  63.9477873   8.8931549
  84.0222073  64.3125582  10.2746379  64.8731327  31.2982464  33.6510730
  64.0997124  31.0488558  34.1568899  64.5690584  31.3202286  32.7437210
  55.8692598   8.0976588  40.7232904  56.3483095   8.3229226  41.5207863
  56.5442944   8.0375373  40.0473118  46.4727783  43.6581755  29.3767691
  46.8648529  43.2013941  30.1209879  46.3288355  42.9730272  28.7240195
  96.5711117  62.0274734  37.1442413  96.9072723  61.1421251  37.0050001
  96.7843151  62.4944401  36.3363314  29.0688968  53.8263702  40.1627445
  29.1973591  53.5261869  39.2629576  29.9025440  54.2317772  40.4013062
  92.8111935  85.4532337  30.3944921  92.9224586  86.3032627  30.8202744
  93.6671066  85.0320053  30.4733086  20.5282712  58.0693150  32.0331955
  20.9481311  57.2502089  32.2959042  19.8332167  57.8002930  31.4325619
  47.7180815  33.7187576  36.8447137  47.7661562  33.0309200  37.5086403
  47.9838896  33.2869864  36.0328341  46.5203667  45.3782368   8.7641668
  46.2097263  44.6660233   9.3231726  47.4481297  45.4668045   8.9824456
  30.3396034  63.1575918  41.9573212  31.2580442  63.3798170  41.8046379
  30.0371361  63.8100338  42.5890398   8.8156508  90.5300444  85.7275337
   8.8023947  91.0503953  86.5308339   7.8998278  90.4917830  85.4518015
  54.7615528  80.2827930   2.9692897  55.2677298  81.0778332   2.8021747
  55.1486206  79.9149895   3.7637264  11.9194067  26.4278936  27.5356603
  12.5950897  26.1929059  26.8996835  12.1579051  27.3089218  27.8240037
  27.6784325  51.0707283  20.4313064  27.6722550  52.0220757  20.5367804
  27.2052097  50.7419300  21.1956263  50.6910706  40.0979614  12.5544393
  50.7485437  39.7436237  13.4417796  50.0598812  40.8142948  12.6230049
  30.2861261  55.3786325  23.1088281  30.2241778  55.8400488  22.2724748
  30.9277940  55.8799458  23.6119962   0.7100628  80.3317278  92.2934481
   0.7180737  81.2713855  92.4756846   1.3839863  80.2117580  91.6243686
  33.4129381  42.9599667  34.6200991  34.1908884  42.5242662  34.2719746
  33.2745361  43.7056398  34.0361047  66.1627340  71.0399246  57.0182562
  66.7741442  71.0263777  57.7546167  66.5246725  70.4102135  56.3948011
  63.8080072  39.2725372  24.3550730  62.9556799  39.3051744  23.9206696
  63.6144447  39.4484925  25.2758360  46.8125343  65.1161098   4.4646776
  47.0674610  64.7719240   3.6086518  45.9136009  64.8110247   4.5874593
  84.5042801  57.8740215  56.7757702  84.3782520  57.5421143  55.8868456
  85.3515816  57.5198936  57.0457792  56.2625980  97.0310593  29.4697714
  55.7484484  97.0342922  28.6623836  57.0303631  96.4982510  29.2626810
  84.5981884  65.3452587  22.8718209  85.2151012  65.0606203  23.5460901
  84.1994953  64.5349503  22.5545192  27.8663110  45.4026239  75.5934382
  26.9659042  45.4666536  75.9118665  27.7928542  45.5069273  74.6447778
  76.5019798  64.3030691  29.2363048  77.4583340  64.3364859  29.2586756
  76.2793541  63.4993029  29.7060108  28.4776878  71.2863350  41.8271160
  28.5483265  70.7735395  42.6322794  28.4252143  72.1943903  42.1253061
  69.3852949  36.1889791  35.7122636  68.9908934  35.4703903  35.2179909
  70.3264999  36.0901642  35.5687284  42.0006323  68.8992691  21.8816733
  41.4406109  68.4788513  22.5342536  42.8787613  68.5686827  22.0709610
  14.0740488  96.8796986  92.5641005  13.4111975  96.8768423  91.8735504
  14.2044829  95.9551113  92.7747148  64.2108107  42.1933889  19.9911392
  63.9812136  42.1427107  19.0632653  63.4726667  41.7847061  20.4431915
  75.2098656  51.2486887  25.0708795  75.7590199  51.9217300  25.4729700
  75.1775646  50.5463552  25.7204318  77.7141666  62.0290136  33.1228089
  78.5515785  62.4441671  33.3292627  77.0772314  62.7425146  33.1610966
  33.2402492  37.7882147   9.2145878  32.4640393  37.9878736   9.7379112
  33.9762402  37.9675126   9.7997397   5.5098008  19.6463268  86.8396134
   5.7297753  19.4213121  87.7436111   5.1384496  20.5267875  86.8955225
  76.5753504  98.1803864  82.6882166  77.2751900  97.7451866  82.2013271
  76.4800331  99.0317076  82.2611404  65.4309511  45.0207567  11.2728500
  66.3113117  45.3644609  11.4247358  65.5413580  44.0699482  11.2750876
  51.2447691  83.7086010   1.4110534  51.1562061  83.0581188   0.7144459
  51.3788843  84.5366096   0.9499259  66.1986732  62.9737568  30.4977727
  65.7986164  62.1173477  30.3469515  66.8800068  63.0409908  29.8288226
  59.4293690  33.5373092  35.7833290  59.0999079  33.6533785  34.8921418
  59.2978048  32.6073742  35.9681058  21.9189786  10.0757425  80.7424760
  22.4700116  10.8011453  80.4485572  21.0668754  10.4765623  80.9142208
  33.8945483  35.2485673  86.2762875  33.4481525  35.0773828  87.1055377
  33.2570218  35.0028532  85.6059045  67.9561853  81.2475967   4.7440287
  68.8248444  81.6200542   4.8954841  67.9743338  80.4051113   5.1980388
  52.7516460  59.6333361  11.7412829  53.3224154  59.5443487  10.9780443
  52.3106766  58.7865925  11.8106115  58.9254236  42.8977394  21.7676735
  59.1735172  43.2084179  20.8969498  58.9440060  43.6820269  22.3161054
  64.0101051  70.7240582  20.2891278  64.3991089  71.4828253  20.7240772
  63.3862972  71.0983324  19.6670222  36.0137271  10.4801481  81.7453003
  36.2447642   9.7176902  82.2758746  36.2060594  11.2304609  82.3076797
  71.1517477  52.9048777  21.3533211  71.6297483  53.1128120  20.5505085
  71.1017942  51.9490147  21.3615751  99.1903782  41.0319281   9.2239803
  98.2443047  40.9666872   9.3540609  99.4208622  41.8940353   9.5702177
 106.3217258  40.6470633  40.1057148 106.7313766  39.8478198  39.7746277
 106.6684151  40.7442141  40.9926176  46.2661743  56.8004656  17.7332675
  45.7527685  56.3578844  18.4091127  46.4886093  57.6481819  18.1181514
  60.7233858  30.8335757  33.1159210  60.1340532  30.4130769  32.4897432
  60.2103090  31.5546083  33.4807420  61.1772060  59.9765730  16.2500060
  61.3238764  60.7490587  16.7958856  60.2909327  60.0905514  15.9068525
  75.5783796  92.3797894  31.7858958  74.7748041  92.8884315  31.8944192
  75.6125879  92.1828270  30.8498049   9.4660377  29.9026887  66.4074481
   9.8106288  29.2793577  67.0469344   9.7573375  29.5633142  65.5611646
  53.0028772  46.1787987  20.4156184  53.7371063  46.7854738  20.5109239
  53.3632278  45.4423952  19.9215662  48.9357328  29.0883653  87.6222289
  48.7134599  28.1772058  87.8136054  48.6212777  29.2291086  86.7291761
  71.7989111  78.3140850  31.9116497  71.1421585  78.4974384  32.5834346
  72.3481560  79.0978146  31.8934298  97.8278255  83.8412476  29.9177909
  98.1402588  83.2050133  30.5610847  98.1190205  84.6876144  30.2570558
  68.8266325  43.5104513  24.1796327  68.9298534  42.8744602  23.4717536
  69.6069813  44.0617800  24.1219497  26.2124252  17.0580213  89.8458916
  26.9156312  16.9007938  89.2157984  25.9650945  16.1852806  90.1514855
  88.4736538  53.3553267  28.0264187  88.7315273  52.4350309  28.0792475
  88.5114861  53.5614252  27.0924354   8.3724929  72.1984625  19.1290128
   7.7255966  71.6401768  19.5603764   8.0402328  72.3054361  18.2377231
  88.8415813  34.6847415  36.6324019  88.1253815  35.1518440  37.0626473
  88.4127712  33.9701748  36.1615062  56.7376041  32.8454280  53.5467482
  57.4382687  33.2279277  53.0185461  57.0699453  31.9835019  53.7974739
  40.0036906  31.8781297  59.7812021  39.3976115  32.2168081  60.4401410
  40.4956531  31.1950605  60.2368582  68.7639427  64.2223835  15.2814877
  68.4084415  63.8335943  14.4823062  68.6946821  63.5281992  15.9368801
  30.1403712  32.7613084  88.0170864  30.9712266  32.2865598  88.0399734
  30.2907228  33.4776037  87.4001986  88.2104301  71.0542059  19.8680019
  88.9106178  70.4850006  19.5486689  87.5566483  71.0449505  19.1689169
  25.1685834  18.9503980  34.0104699  24.2581987  18.8053358  34.2681265
  25.5329227  19.4902349  34.7119451  16.7481707 101.0962122  91.2036683
  16.5016840 100.7604235  92.0654813  16.2363814 101.8989437  91.1040344
  46.4271402  45.9862757   4.0415099  46.3072681  45.6146193   4.9154279
  45.7687712  45.5478954   3.5024336  31.7688274   3.9437692  82.2807384
  32.3334979   3.2670848  81.9072688  32.3245906   4.3960636  82.9153931
   7.8440046  24.1278284  82.4137450   7.9750537  24.5401828  81.5599192
   7.3694705  24.7827547  82.9257202  95.8154155  19.3590259  13.1713784
  95.0896169  19.8528480  12.7898192  95.8532000  18.5527610  12.6568627
  67.4930429  66.9276524  35.7270408  67.4799585  67.5375605  34.9894261
  66.7565107  67.1986961  36.2750340  56.0287619  64.2858601   6.5274650
  56.5609169  64.8167276   7.1201098  55.3010273  63.9794636   7.0685321
  39.2203951  71.7002773  14.2170584  39.0857148  72.5837278  14.5600009
  40.1507473  71.5268755  14.3606162  72.1142101  52.8785610   6.4549023
  71.2069464  53.1101418   6.2562120  72.6365900  53.4743404   5.9178799
  76.4996672  43.0544519  22.3762941  75.9712839  43.8524914  22.3899198
  75.9923983  42.4226093  22.8858876  67.2518587  84.2428780  14.8025525
  68.2086992  84.2192745  14.8141420  66.9921923  83.8352585  15.6287754
  35.9900999  32.1258354  32.9495454  35.0708485  32.3132825  32.7596188
  36.0231185  32.0289969  33.9012623  66.6462898  55.1791525  18.0600989
  65.7803345  55.4353189  18.3774817  66.4728594  54.7066689  17.2459042
  46.3745641  15.8858221  77.0250821  46.6673993  15.5291765  76.1864591
  45.5650567  16.3524692  76.8173421  66.8129301  68.0749702  52.9305029
  67.3914766  68.0794144  52.1679449  66.1784649  67.3824739  52.7457476
 112.7625201  35.7576292  87.6028434 113.0993769  35.3031461  88.3749828
 112.0161150  35.2290838  87.3204500  39.7088766  43.7052965   5.8783495
  39.6954203  42.8379965   6.2831193  39.4247866  44.2985773   6.5737247
  74.7406673  57.6075506   7.1909553  74.5771503  57.1902323   8.0367327
  75.6363440  57.9387712   7.2564834  71.7042828  62.2980547  20.7826114
  71.8062973  62.3006725  21.7343569  72.0935154  63.1248379  20.4977298
  72.5156641  45.5214500  26.4668775  71.7105246  45.5234003  25.9492111
  72.3531771  44.8816633  27.1600604  79.2146397  68.6346340  16.5170407
  79.7161198  69.3424463  16.1123824  78.3581543  68.6742640  16.0914946
  64.5527363  48.0560732  16.4093649  64.3486834  47.7524328  15.5248332
  65.3762054  47.6199579  16.6282976  30.5905914  11.1634314  52.3730993
  31.4526510  10.7485008  52.3428297  30.3175330  11.2154734  51.4571524
  69.6892023  28.5402656   5.6515455  70.4042006  27.9189014   5.7890880
  69.4301939  28.4092832   4.7394103  56.7970276  48.0466080  23.4598494
  56.0468245  48.5977364  23.6827469  56.8497610  48.0885744  22.5050235
  88.5472393  52.6490164   7.4196213  89.1661739  52.5160885   6.7016494
  88.4462357  53.5992050   7.4759424  79.0603113  65.9059525  25.1693273
  79.8232889  65.3399754  25.2866554  79.0305090  66.0756636  24.2277646
  49.6058226  66.0795116   5.7951337  48.6828184  65.9516907   5.5761456
  49.6373177  66.0109091   6.7493528  74.2253494  68.7164879   8.9950258
  74.7991371  68.9166641   9.7345710  73.7556648  69.5336866   8.8282442
  68.6278439  64.1034651  23.2996130  68.7132454  65.0541496  23.3712554
  67.7731800  63.9699697  22.8897786  67.6626539  57.5936747  33.2116199
  68.1750631  56.9084311  32.7825356  68.3156633  58.1537628  33.6312795
  61.1916018  52.3568487  19.9761879  61.0740995  51.4087343  19.9170470
  61.5728378  52.4973488  20.8428764  75.3771353  46.2080336  22.0866394
  75.0479650  45.9365702  22.9434872  74.6175718  46.1456013  21.5075016
  52.9798222  34.5775652  40.4902697  53.6137152  33.9452195  40.1518106
  52.7165890  34.2219281  41.3390684  29.7547126  49.1222095  17.4391389
  29.9967742  48.8853979  16.5438414  29.7889543  48.2968855  17.9227734
  20.0202703  20.2223461  89.1878301  19.6919393  21.1185138  89.1149077
  20.8905505  20.2530353  88.7904561   9.9230002 103.5735148  74.0526831
   9.3430136 103.1940620  73.3924854  10.3257273 102.8178471  74.4804693
  49.9586201  81.9951725  13.0434763  50.7609463  81.6102028  13.3960319
  49.9936295  81.8051147  12.1059883 100.4859447  57.1237898  15.3708529
  99.8980331  56.5365410  14.8957336 101.2193394  57.2644520  14.7720373
  73.4896803  71.4869118  54.6881819  74.2751312  71.4021063  55.2286530
  73.7865925  71.9507360  53.9052773  64.7446823  87.6605892  30.0457215
  64.2152405  88.4349251  30.2363276  64.3753624  87.3116875  29.2344880
  41.7650366  63.0978775   7.6924372  42.1397161  63.9473724   7.9252678
  42.2567701  62.8232384   6.9184840  83.3530521  97.9919910  10.3260183
  82.9306793  97.4789619  11.0149574  84.0120029  98.5128307  10.7850838
  68.6668015  39.9773788  27.7331090  69.4073915  39.6756482  28.2591462
  69.0549326  40.2287054  26.8950033  35.9233189  62.5025129  31.3739324
  35.7856488  62.9796267  32.1922493  35.1732707  61.9110060  31.3124609
  36.9374084  37.6476591  91.4528552  36.9386434  36.7038457  91.2933300
  37.8619241  37.8949563  91.4340642  29.3066453  12.8853147  77.9011536
  29.6376800  12.2980087  77.2216547  29.0928888  12.3075597  78.6337805
  37.3179555  69.1400290  40.8138609  36.8816686  69.1668987  41.6654253
  36.6189814  69.3059301  40.1812935  65.7164049  52.5579739   0.4239912
  65.2061272  52.0660496   1.0673094  66.6245270  52.3114395   0.5994178
 101.7438313 106.2674397  90.5912599 100.8087870 106.1419409  90.7530456
 102.1639344 106.0297983  91.4178629  28.3687448  36.7250650  79.2628086
  28.5529470  36.3719099  78.3924175  28.3678483  37.6744573  79.1408074
  70.3597784  53.4570217  36.2281036  69.8009586  53.0290365  36.8767786
  71.1897230  53.5990429  36.6833568  95.8090779  83.8593309  81.1229587
  96.3565966  84.0272968  80.3559888  95.8358523  82.9088324  81.2328279
  78.0934858  32.1073747   1.5124872  77.8618336  31.1905074   1.6605605
  78.9131975  32.2277379   1.9918743  59.2867422  70.2929735  10.3897393
  59.5814705  71.1736870  10.6214905  59.6593857  69.7295094  11.0678804
  57.2633743  57.8910685  17.3718798  57.7009106  58.5646725  17.8925097
  56.4097977  58.2688999  17.1600258  96.0775658 100.1987141  84.0439350
  95.1300236 100.2842491  83.9386881  96.4458272 100.7217520  83.3318627
  32.7022386  88.6857414  20.8983040  33.6571884  88.6216640  20.9122324
  32.5184584  89.5842934  21.1722946  32.3690224  91.3800907  21.4773178
  31.4256334  91.4056110  21.6373110  32.7490067  91.8695831  22.2068691
   0.7661008  21.1946218  50.3466547   1.5366792  21.5329139  49.8905838
   0.2712344  20.7322328  49.6702373  95.5309964   0.2436065   0.8047300
  95.0980473   1.0029220   1.1949068  95.7089234  -0.3370572   1.5445945
  75.2818631   8.0023448  90.1039635  74.5356416   7.8541343  90.6848362
  75.2274465   7.2968261  89.4593579   0.2216579  50.2392864  30.3117847
   0.8645965  50.2697325  29.6033096   0.1150562  51.1525536  30.5778861
  77.2144032  51.9596720  14.9676156  76.9313383  51.8054485  15.8689046
  77.9454947  52.5723124  15.0476897  78.3862734  81.5714169  22.0029855
  79.0494776  81.5453339  22.6927018  78.5347557  80.7721996  21.4975882
  98.9504623  76.5100002  10.2557778  98.7640953  75.7674074   9.6812719
  99.0983486  77.2434664   9.6587974  29.3936348  77.4466991   6.9930923
  30.1692200  77.9897976   7.1335876  29.0364385  77.3077679   7.8702128
  61.3038968  40.1480024  82.2589565  61.9364118  40.2513711  82.9699171
  61.7799138  39.6653478  81.5831697  77.6118088  60.0708294   1.0396402
  77.3737955  59.5385027   1.7987256  78.5649776  60.0004911   0.9871595
 100.0597954  58.4159851  20.0681210 100.7676315  58.9338350  19.6846771
 100.3673172  58.2058144  20.9498739  77.2198486  56.3540697   0.9327617
  77.5241852  56.5788889   0.0535187  76.4879227  55.7547045   0.7869096
  43.6039304  26.5469806  87.7325273  44.5091771  26.8580453  87.7332092
  43.1249665  27.2027128  88.2393283  36.8102788  44.6072500  84.5525909
  37.3066615  44.7758977  83.7517208  35.9134006  44.4605463  84.2520690
  46.4119911  75.8371115  38.9410663  45.6808758  76.1438513  38.4047747
  46.4929533  74.9077606  38.7266278  61.5260506  77.0004559  27.7188063
  61.0761690  77.2412872  26.9089675  61.6188431  77.8252411  28.1956267
  26.4369583  58.3876133  24.9190998  25.5508876  58.7268209  25.0457811
  26.7542839  58.8338661  24.1339922  76.1816406  64.4577074  11.7238021
  75.9660959  64.5672941  12.6499569  75.3331327  64.4365788  11.2812877
  15.2232646  21.1114662  60.0322879  15.4103278  22.0287530  59.8327244
  14.2856597  21.0945003  60.2242244  64.8936367  60.4751205  19.2681754
  64.1632366  59.9020338  19.0351200  64.6844196  61.3111877  18.8516963
  81.4543819  64.4422674  25.0267529  81.8999672  64.3296814  24.1871047
  81.9900227  63.9513254  25.6498814  37.8870034  66.0160208   5.5582213
  38.3597469  65.2363920   5.8496356  38.5338140  66.5162992   5.0606382
 110.9481928  28.6051481  57.2729028 111.5794895  28.0618875  56.8011415
 110.4074380  27.9798143  57.7553690  73.2396221  64.9751186  13.1759322
  73.4653282  65.0186634  12.2467422  72.5325346  65.6117296  13.2807422
  49.3570137  60.2226543  26.2924266  48.5734701  59.6922541  26.1476350
  49.0818310  60.8897400  26.9213200  43.1714010  59.8642254  49.8336649
  43.6875534  60.0470018  49.0485477  42.5303411  59.2114735  49.5522642
  66.6178179  94.3876839  33.0072761  66.5088320  93.9526749  33.8529253
  65.8165836  94.8994446  32.8961635  54.7087765  39.7594404  18.4709179
  55.2399063  39.1879773  17.9163325  54.1461420  39.1608810  18.9622438
  95.7197285  91.5678883  29.6762848  95.1865864  92.3279095  29.9094224
  96.6134262  91.9075298  29.6294379  65.0766039  59.2086124  38.4489608
  65.1320267  59.1439962  39.4023681  65.9122658  59.5943451  38.1860614
  67.4539757  59.4443369   5.8192563  68.0110979  59.1368771   6.5343207
  66.8531656  60.0639629   6.2331676  82.6489162  89.2399502  -0.2307738
  82.9708958  88.3504581  -0.0846083  82.2280979  89.4809723   0.5944812
  91.3288784  81.1493397  20.8033729  91.0184383  80.5983448  21.5218902
  91.7358398  81.9000721  21.2358260  63.9435959  39.4393682   2.8166789
  63.2962418  39.9848390   3.2634693  63.5988760  39.3365192   1.9296491
  94.0398452  98.9617270  90.9027171  94.7634503  98.4171265  91.2126258
  93.2635590  98.5891836  91.3208355  61.5357447  35.8361959  16.1407328
  62.4140215  35.8198714  16.5209937  61.2879562  34.9142909  16.0705638
  59.7840928  11.4472215  91.6345221  60.2378701  10.9420173  90.9599215
  60.4682683  11.6749828  92.2640174  86.5398165  88.5120934  89.2154980
  86.4852807  89.1622418  88.5150946  87.3945710  88.6650675  89.6182698
  66.2743235  67.4915504  38.4594846  65.4492664  67.1049881  38.1660867
  66.3328648  67.2567701  39.3855953  88.5016823  80.5263233  43.1552505
  87.6339626  80.1251125  43.2033968  89.1096210  79.7883415  43.2003784
  51.4367913  62.6656644  84.7068745  52.2701787  62.2223775  84.5481533
  51.4462899  63.4142606  84.1104317  16.6061782   8.9190071  92.2895153
  16.7893027   7.9859130  92.1797991  17.2509813   9.3566101  91.7336670
  10.5047177  21.5936344  91.3409880  10.5604409  21.1090534  92.1645820
  11.3551282  21.4556091  90.9238713  55.9575272  80.2458477  19.6527731
  55.1109695  80.2344990  19.2061830  56.5603876  79.8339176  19.0338135
   7.0080425  58.0385447  38.3697486   6.3524772  58.3230019  37.7329230
   7.5238277  58.8245153  38.5498738  68.2422781  67.2936535  14.3868053
  69.0372849  66.9022512  14.0248632  67.6828241  66.5465879  14.5992553
  21.2061452  14.7112339  69.1812384  20.8536147  14.0711420  68.5629881
  21.1839961  14.2643135  70.0274051  54.4573784  41.9978857  14.5888209
  54.7408485  41.8850851  15.4960990  54.7197819  41.1868906  14.1533136
  38.0635858  55.3969383  19.1630304  38.3878541  55.7911587  18.3532929
  38.7549305  54.7900677  19.4275641  58.3093500  37.9335690   5.6281316
  58.3289671  37.5011420   6.4818615  59.0283728  37.5324750   5.1399094
  36.9750500  66.5394068  11.9676173  37.2613263  67.3204899  12.4410963
  37.1995425  65.8119202  12.5477910  92.9429054  62.3765993   2.4893472
  92.7369404  62.6522398   1.5961319  92.7182865  63.1330013   3.0312300
  82.2360897  59.5339870  19.7543669  82.0523453  60.4187536  20.0700426
  82.8786755  59.1874456  20.3734207  93.7736225  49.9937439   9.9776691
  94.7099590  49.9404383  10.1691186  93.4376144  50.6363869  10.6024444
  13.3934497  19.8694055  77.0604587  13.2063436  20.6922500  77.5122857
  13.4067344  20.1034086  76.1323977  51.9195890   0.0428264  74.2676449
  51.1839437   0.0017660  73.6566103  52.0314359   0.9766929  74.4454444
  79.3356800  68.2304573  49.4249058  79.3217468  69.1544294  49.6745253
  80.0308037  68.1698370  48.7696505  65.6926155  96.8553925   1.4548194
  65.3441715  96.0823345   1.0107446  64.9177885  97.3648167   1.6922380
  87.4129581  85.4683399  47.1206808  86.7329025  85.9689426  47.5714016
  87.3317623  84.5823002  47.4736261  10.8152818  38.8759248  79.9962223
  10.4358100  38.0527990  80.3039694  11.1544513  39.2939966  80.7876814
   9.3422606   9.7659587  12.9054642   9.6379092   9.2655658  13.6660135
   9.1977503  10.6503009  13.2420409  35.8800601  17.3966377  73.6634076
  35.2487229  17.8578060  73.1111634  36.5769672  18.0350606  73.8149608
  73.0904913  71.8049717   4.6720418  74.0021038  71.6578865   4.9241653
  72.6371670  71.9708776   5.4986036  43.6062860  30.5008047  91.4263225
  43.1020974  29.6928709  91.5225904  44.5099591  30.2421777  91.6072055
  64.4594669  74.6185446  11.4947927  64.4090748  74.6594048  12.4497914
  64.6992683  73.7112617  11.3062024 102.7697846 100.2356546  91.4616311
 102.9279467 101.1064547  91.8262126 103.2498357  99.6430224  92.0400480
  74.5795202  61.3568068  12.6335168  75.5228233  61.2302923  12.7355230
  74.4826984  61.7463779  11.7645574  29.4918155  66.1990850  88.5027123
  29.2471933  66.4014451  89.4057328  29.1039895  65.3399389  88.3362955
  31.0555839  46.0024087  65.3608382  31.0753822  45.0467317  65.3106988
  31.4388322  46.2936513  64.5334757  59.8427916  92.4390793  27.4301863
  58.9194965  92.4520206  27.6823592  59.8516893  92.7807236  26.5360785
  35.2793788   1.5860479  91.4718831  35.2918815   0.9110134  92.1504139
  35.6342076   2.3642604  91.9016698  17.6806688  29.5548646  84.9934805
  18.3307790  29.9616163  85.5663199  17.8905963  29.8856657  84.1201336
  75.5278969  98.7617683  27.1196747  75.5421305  97.8092003  27.0266795
  76.4509439  99.0146637  27.1357656  13.8020232   7.7619934  21.3151717
  14.3436243   8.5269641  21.5093756  12.9214861   8.0154323  21.5920377
 101.7299197  18.4142702  90.9237787 102.2653291  19.2059534  90.9767509
 101.4100955  18.4013383  90.0216827  94.0258694  37.2295022  32.9995584
  93.7343025  36.7480755  32.2253156  94.3443584  36.5525508  33.5966611
  85.4368210  68.5239315   6.3362795  84.8995972  69.1459513   6.8269092
  86.3117981  68.9120722   6.3349742 101.0004330  76.7345095   1.9049223
 101.0018063  75.9057045   1.4260539 100.6497765  76.5122175   2.7673960
  50.8249044  74.3743515  17.4607337  51.6198730  74.7313499  17.0647442
  50.1207829  74.9307060  17.1277034  47.8626871  75.3884363   2.7006605
  47.2767830  74.6315002   2.7008218  48.7222528  75.0259256   2.4862736
  82.9236889  62.8829432  22.8013563  83.0789185  62.7171469  21.8714929
  83.2407188  62.0942497  23.2414579  25.3048613   1.7292118   8.5818601
  25.5770686   0.8533286   8.8556510  25.8062651   2.3218440   9.1418767
  79.4544744  45.4004400  91.2591597  80.2568483  45.9207170  91.2175344
  79.4550466  45.0295084  92.1415653  45.4790067   4.0241878  77.6332784
  45.3418206   4.9697368  77.5754357  46.3944387   3.8992326  77.3830712
  97.9503536  72.3166466  21.6037989  98.7587357  71.8445826  21.4040446
  97.2756577  71.8592739  21.1019707  49.3068695  86.1391258  50.4412937
  49.0625143  86.7474270  49.7438145  49.9714375  86.6079521  50.9460545
  41.7597675  30.6628435  50.9365547  41.5080833  31.5787809  50.8184851
  41.2723588  30.1915090  50.2609003  48.8321829  84.0091610  25.7785106
  49.4609070  83.4801579  25.2875018  48.1038523  84.1403866  25.1714277
  93.6037064  63.8025951  35.8208084  94.5208073  63.9930010  35.6235766
  93.5602760  62.8471375  35.8588576  50.1532888  74.5169592   6.3893884
  50.6146049  75.3295994   6.1819357  50.6636906  73.8340187   5.9542829
  57.8076696  86.6714096   4.6919605  57.5513840  86.0889530   5.4070127
  56.9824171  86.9093704   4.2693880  62.0576954  65.1430750  22.8369474
  61.9292974  64.3236589  22.3591352  61.5278339  65.0446033  23.6280131
  77.4671173  50.8490896  23.2621813  78.2847977  51.1320400  23.6715269
  76.7813396  51.1893749  23.8367629  87.0103645  43.6785126  17.9007041
  87.0240688  43.8716078  16.9632840  86.1168098  43.8851118  18.1747615
  71.9030142  89.6911907  34.3267465  72.5517178  90.2152729  33.8568950
  71.0609627  90.0706100  34.0753174  99.2612553  55.0721264  26.9171214
  99.6441650  54.7539854  26.0995650  99.5796204  54.4632721  27.5835824
  41.3225650  58.2220762  86.7655731  41.3938808  58.8022821  86.0076130
  42.0430087  58.4860151  87.3378736  95.5378532  54.2582989   3.1353483
  94.8051834  53.6446571   3.0817825  95.2005291  54.9894810   3.6528641
  95.9749985  79.4903231  33.3368993  96.0204315  80.3534698  32.9256225
  95.1047802  79.4599438  33.7344313  49.4203519  29.5494287  68.7635339
  49.7919892  29.0421598  68.0418766  50.0823068  30.2137678  68.9551294
  65.8029938  90.7209110  39.2222834  64.9758720  91.0538578  38.8740659
  65.7893896  89.7856998  39.0187788  31.9603252  77.6433277  35.8304143
  32.2897243  77.5592232  34.9356198  32.7055860  77.4080420  36.3830972
  78.9708328  74.1183090  35.5151153  79.5217371  74.1896915  34.7356009
  78.9504576  73.1811762  35.7090116  17.7691748   2.6328277  40.6627893
  18.5536101   3.1615447  40.5166769  18.0961039   1.8216514  41.0518026
  71.9196987 106.7280769  16.1454177  72.2605276 106.4850712  17.0062423
  72.4592257 106.2359715  15.5265629  55.7515287  62.6003790  15.8454144
  56.5104771  63.0610466  16.2032080  55.0108624  62.9253912  16.3572824
  59.7925568  71.9773960  54.8500299  59.5921946  72.1430588  55.7712507
  59.5058775  71.0764027  54.7008419 106.1439511  90.8946293  90.3671778
 106.8102214  90.5113857  89.7967059 105.7841107  91.6222756  89.8599527
  92.6785278  54.5916605  17.4330580  91.8091488  54.9021769  17.1800971
  92.5096703  53.9128256  18.0864322  86.5076447  68.0813503  15.0868797
  86.7496014  67.9216814  15.9991252  85.9210205  68.8368511  15.1233923
  68.5531616  70.5581570  25.9107804  68.7488270  70.0090599  26.6700196
  69.3219233  70.4704475  25.3472686  31.3636636  25.0996702  81.0638023
  32.0602655  24.7236793  81.6019559  31.0188102  25.8219450  81.5888048
  87.9371643  95.4401302  43.1139278  87.5919151  96.0168552  42.4324369
  88.0517769  94.5958233  42.6777649  73.4418106  76.8938255  27.1140075
  73.6437130  75.9583139  27.0971346  73.4707785  77.1617079  26.1955142
  72.3003101  66.8409967   7.7442992  72.0220804  67.3603773   6.9899362
  72.6616478  67.4821234   8.3563614  12.1581271   1.4744472  14.0979826
  12.2564413   0.5224513  14.0816164  12.9785731   1.7935371  14.4738567
 100.5382252  93.4082031  12.2979259 101.1332607  92.7654552  12.6839912
  99.8572254  93.5316181  12.9591620  83.0238056  85.4724789  18.9805865
  83.4836197  84.9962521  19.6719682  82.7403736  86.2859821  19.3978369
  87.2495556  57.5869274  38.2796669  87.6333427  56.8069935  38.6804628
  87.3847771  58.2796764  38.9262295  81.1456490  73.9468241  44.1044569
  80.3966236  73.7226439  44.6566677  81.7846680  73.2549191  44.2751789
  39.7312498  63.5968590   5.6724864  40.1936436  63.5718870   6.5102208
  40.3703499  63.2754898   5.0364816  34.1972779  10.2744977  86.4723915
  35.0287294   9.8187892  86.6037101  33.9001416   9.9867122  85.6091869
  98.1681156  93.3026218  13.7148893  97.7150345  92.8231239  13.0213237
  97.7277088  93.0317211  14.5204270  57.7309036  95.3121090  36.5796781
  57.8730202  95.0000477  37.4733520  57.3983574  94.5477676  36.1091208
  25.8751822  28.1402969  23.7072492  26.3232946  28.6718035  23.0492783
  26.1313438  28.5285950  24.5438099 105.8024741  19.0199470  23.4242940
 105.0128842  18.5801696  23.1090617 105.7250310  18.9966392  24.3780708
  10.7812404  58.8050001  88.2041437  11.5587138  59.3463819  88.3407766
  10.7669496  58.6399763  87.2613836  49.1196108  45.4762363  14.1518259
  49.4759417  45.8871603  14.9394834  48.1994724  45.3154325  14.3609154
 106.9564915  79.3086243   0.4003349 106.0171223  79.1315031   0.4496823
 107.1369743  79.8582554   1.1629388  32.2926807  -0.0047333  70.2690208
  31.5133189  -0.2425225  69.7667444  32.1692418   0.9210174  70.4787362
  68.8393879  74.4262600   9.0934670  68.1176567  73.9895248   8.6411381
  69.4314003  74.6989107   8.3924568  32.8831529  34.6581094  83.5774398
  32.8018235  35.4016416  82.9801345  33.7452840  34.2894475  83.3849627
  91.9370365  52.4803543  19.0231574  91.0589123  52.8340149  19.1647792
  92.1239281  51.9784641  19.8165083  31.6210317  20.0415819  90.0457505
  31.9185018  19.6957939  89.2042184  32.1850967  19.6169155  90.6920663
  85.1043415 101.1105919   9.5226240  85.2287388 100.3675079  10.1130366
  84.9349403 101.8522930  10.1034999  89.0462017  89.2932224  30.9079552
  89.6026993  89.9362278  30.4685283  88.9966488  88.5602283  30.2943611
  64.1740417  83.0436134   4.1848272  65.1113605  83.0670738   3.9921740
  63.7820244  82.6278210   3.4169310  83.4555387  17.8730123  82.5345761
  82.9785775  18.6979167  82.6255471  84.1298150  18.0570810  81.8805898
 101.5772915  46.2840509  23.2630515 100.9748936  46.0306740  23.9624429
 101.7844772  45.4632282  22.8163338  79.3050337  78.0317068   6.2935561
  79.9891567  78.1054831   5.6281537  78.4981441  78.2646847   5.8343387
  28.5644292  75.7555692  87.1200645  29.1934346  75.1157300  86.7866153
  27.7315950  75.5027502  86.7216850  33.6243868 106.1173058  29.6481085
  34.1970992 106.0936832  28.8815093  32.7427125 106.2045479  29.2857981
  82.6667118  51.9581461  58.0472851  83.1981182  51.7616177  58.8187838
  82.0071030  51.2647724  58.0278349  94.9722481  63.1174612  47.3826694
  94.1148472  63.4418201  47.6581383  94.8922348  62.1644831  47.4234962
  88.0913114  10.1441829  83.0711890  87.3021745   9.7728841  83.4656942
  88.7491464  10.1008480  83.7651623  76.1405659  68.1662273  34.8903584
  75.8335447  68.3441782  35.7793498  76.9238997  67.6293850  35.0104618
  81.6682529  86.3760281   4.7461826  81.0115433  86.5556335   4.0733516
  82.4145985  86.9246578   4.5049098  93.4973718  29.6520233  31.6277671
  92.8550053  29.0240192  31.9582415  94.1144420  29.1209793  31.1243320
  72.7184984  96.8565529  85.4106891  72.6364514  97.7317017  85.0317198
  73.0753109  96.3211458  84.7019893  54.3847322  48.5158396  19.0877151
  53.8873625  49.3334484  19.0683925  55.3007317  48.7919283  19.0569329
  84.0974808  64.8286343  19.3451357  83.5109138  64.7523308  18.5925686
  84.1105366  65.7647085  19.5446897  90.5559254  79.1380644  22.6712656
  90.2292156  78.2991648  22.9964566  91.3835526  79.2684650  23.1341434
  77.1443892 105.8690453   1.4255553  77.1995449 105.5408382   2.3230331
  77.5249672 105.1716518   0.8916746  59.0724992  14.0945070  90.3676842
  59.7653150  14.3382471  89.7538272  59.4943189  13.4881513  90.9764779
   4.9067165  61.2805796  36.8299127   5.4431488  61.2252140  37.6207399
   4.0113880  61.1389017  37.1374083  93.2803631  83.7518597  10.6913447
  92.8118896  84.5802879  10.7936454  93.1354523  83.2911205  11.5177584
  77.4184513  83.7394810  20.6414557  77.5883722  82.9826546  21.2023211
  76.6759300  83.4737015  20.0990033  46.1779260  27.3701112  87.9084987
  46.3590287  27.3606603  86.9686336  46.2152051  28.2955186  88.1502959
  58.6954117  75.7745838   6.9922298  59.2633247  76.5078974   7.2287744
  59.2834330  75.1373386   6.5867901  80.3183842  75.0614214  53.7796021
  80.7173824  75.5988455  53.0953503  79.9728107  75.6936741  54.4097328
   1.9748832  78.2128334  30.5463696   2.7248718  78.4508991  30.0013208
   1.2191249  78.5789394  30.0869823  70.7830572  80.8353138  27.7858067
  71.3869381  81.5164661  28.0817747  69.9147129  81.1736012  28.0043888
 110.9180690   6.9616889  61.6165352 111.4624406   6.2166595  61.3619375
 110.6277228   7.3407554  60.7869339  50.7481241  74.7539949  26.2233043
  49.9108171  74.4871950  26.6027284  51.3946629  74.5414448  26.8963861
  83.2903862  70.7565689   5.2862412  83.9230537  71.4737749   5.3260595
  83.2423115  70.5309010   4.3572664  84.5822906  68.4937286  36.5945625
  84.0424728  68.2256937  37.3381948  84.0102673  69.0580988  36.0744476
  95.9938335  54.6668816  24.4822836  96.8678665  54.6148682  24.8690557
  95.4051876  54.3826437  25.1815295  48.8118982  93.2846355   1.6917409
  48.3908510  92.9705143   2.4919160  49.5446682  92.6841354   1.5550758
  62.4640131  85.1271629  12.4969256  62.2603846  85.8042240  13.1421816
  63.3343840  85.3590298  12.1730030  98.4516144  94.9514389   1.8326597
  98.2860088  95.8045864   2.2338431  97.7073002  94.8137379   1.2467781
  49.7125101  82.3169231  45.6305075  49.2346478  81.5326500  45.9003162
  50.5719328  82.2272682  46.0423088  77.2279596  60.2997446  31.2058616
  77.9235744  60.5166101  30.5851197  77.3858976  60.8761406  31.9535589
  74.5415688  73.0577993  17.2706091  75.1537657  72.3220634  17.2820234
  74.0595150  72.9810667  18.0939984  67.6391983  81.2082577  27.1788383
  66.8858862  81.2881851  27.7639580  67.3612022  81.6386604  26.3703203
   7.2995235  75.1344252   9.6017718   8.0775596  74.8126268  10.0571024
   7.0291950  75.9033823  10.1036274  71.8637466  90.2324104  39.9617624
  72.4105740  90.0376701  39.2006540  72.4572945  90.1564217  40.7088661
 109.9956704  31.9535064  25.1749134 109.6499682  32.6544284  24.6222591
 109.5106793  32.0347404  25.9961438  75.9081030  74.2957067  34.1980028
  76.5449286  74.5825958  33.5434914  76.3860989  73.6655760  34.7371554
  37.1656513 102.4051476  43.9421606  36.6898346 102.2640133  44.7606373
  37.6021361 101.5704536  43.7718678  67.2576809  92.1646500   8.1198245
  67.5151443  92.0803738   7.2017592  67.3848820  91.2892818   8.4855789
  80.1656246  70.3695345  14.5727086  79.9565363  71.2530899  14.8757637
  81.0145378  70.4594612  14.1397154  89.9537277  70.8248758  31.6029596
  89.2521000  70.5560732  31.0099125  89.5462894  70.8303165  32.4691010
  89.8562050  68.2852268  16.3164163  90.7759857  68.0291319  16.2482846
  89.8037529  69.1172075  15.8460033  21.0672950  52.1328466  78.9212311
  21.9496154  52.4948518  79.0030372  20.9204148  51.6710012  79.7466779
  37.6200867  97.8697300  22.6096797  38.3425975  97.2778988  22.4000502
  37.3592758  98.2377529  21.7654181  63.0252504  90.7085800  40.9127760
  63.3718491  90.1326656  41.5942574  63.6673927  91.4153767  40.8470774
  80.3217316  57.0412588  16.5620053  81.0754585  56.5393925  16.2517536
  80.4220581  57.0603943  17.5137401  61.1588240  72.5361061  19.8527503
  60.5380726  72.9074335  20.4796553  61.2756300  73.2226467  19.1960526
  76.4621115  66.4813232  56.4812946  76.8963575  67.1268368  57.0389462
  75.5502415  66.4881992  56.7722940 111.3571453  64.0003204   6.2914938
 111.5666962  63.1558800   6.6905415 110.9950352  64.5208120   7.0085651
  62.4620342  71.5122414  10.1654661  61.6778708  71.9483185  10.4988647
  62.9817343  71.3236332  10.9468579  64.9049807  73.7803936  35.4486084
  64.3099928  73.6970425  34.7034407  65.1371002  74.7088432  35.4670811
  91.9204617  96.9320297  26.8829036  91.5701866  97.5726891  26.2639594
  92.1926689  96.1949062  26.3362813  71.1653900  91.3652897  20.1554084
  71.4256573  91.2550735  19.2408895  70.7523489  90.5339146  20.3887463
   8.5616588  62.6406209  89.7652832   8.7644767  63.0026739  90.6278462
   9.3976926  62.6494138  89.2992270  81.5264034  81.4794064  15.5064344
  81.3484097  81.9939709  16.2936914  82.0116234  80.7174397  15.8229637
  59.9084043   6.3291090  76.2448883  60.8359765   6.5518062  76.1658621
  59.7473954   6.3049953  77.1881414  79.9717331  74.7008467  26.6569710
  79.5938921  74.3015289  25.8733821  79.3540764  75.3922653  26.8950319
  69.8324728  72.5163984  22.2796607  70.1087141  72.3815632  21.3731623
  68.9089918  72.7597666  22.2149515  75.6689358  84.6043205  29.0073633
  75.2380848  84.6088314  29.8621035  75.5217648  85.4841614  28.6603141
 112.2891856  15.6313610  20.2133870 113.0149890  15.0532245  19.9784458
 111.8474246  15.1808166  20.9331703  47.1679354  58.1818390  14.7956181
  47.5537777  57.6696348  14.0849805  47.3854256  57.6925039  15.5890155
  68.7439919  65.0484419  20.4879141  68.7865639  64.9132442  21.4345622
  69.6589279  65.1091766  20.2132583  29.6966507  81.6639900  24.4076920
  29.5194198  80.7309151  24.5268130  29.7429134  81.7797470  23.4586453
  92.2354698  85.3082180  39.7803664  92.9456806  84.6896362  39.9512172
  92.6770592  86.1435413  39.6272039  13.3786678  38.0313890  75.0099087
  12.7140283  38.7197702  75.0347269  14.1624307  38.4671514  74.6751535
   9.1110551  46.2153101  31.9725084   8.4144717  46.8226862  31.7233157
   9.8495811  46.4552164  31.4128137 109.3211746  36.2980270  38.9941287
 109.3762589  35.4310489  39.3960619 108.9459705  36.8548846  39.6763015
  70.4063034  98.0406380  41.7909145  70.3932953  97.1957302  41.3412523
  69.6213579  98.4904671  41.4782572  33.0100440   3.2043664  88.7851373
  32.3347425   3.7580507  88.3931822  33.5710048   3.8139503  89.2646808
  81.0475159  80.9398174  59.8160458  80.1322651  80.6613445  59.8477221
  81.0884666  81.5441895  59.0749025  98.8781072  17.7383041  31.3133311
  99.6138955  17.4795818  30.7584310  98.2619525  17.0085525  31.2497258
  53.1610346  82.5277805  49.9422693  53.4171486  83.1418514  50.6304216
  53.7793827  81.8019962  50.0266266  47.0783901  64.3664789   1.6620754
  46.7115116  65.0203609   1.0670407  47.6570892  63.8392973   1.1112390
  26.2801650   5.5125999  74.0950346  27.0981696   6.0073470  74.1434050
  25.8645537   5.8153057  73.2876587  68.2269430  69.4759226  50.3554344
  67.4628544  69.4196177  49.7816515  68.9716482  69.2990828  49.7806549
  73.6202097  83.8482857   1.3912562  74.0954113  84.5958042   1.7540804
  73.4020329  84.1139030   0.4979037 109.1617966  89.8006153  20.9779501
 108.5556030  89.2352390  21.4565945 108.6276531  90.1952076  20.2885842
  22.3622251  75.1703119  19.6717787  21.4930081  75.5419588  19.8220050
  22.3699832  74.3634415  20.1866937  38.6034751  76.4312696  27.3027921
  39.1701889  75.7852650  26.8811893  38.3974361  77.0580196  26.6092801
 111.8404293  92.3272228  15.6047583 111.2244225  92.7504349  16.2028062
 112.4930763  91.9252682  16.1780977  88.9549541  88.4867287  16.7324507
  88.4933281  87.6783276  16.5097141  88.3026505  89.1765022  16.6102040
  82.2751427  74.0783167  22.0225191  82.4664879  74.8768091  22.5144792
  82.8712559  73.4239388  22.3867536 101.4754581  41.5380573  42.0620775
 101.5516663  41.0088587  42.8560352 102.3382854  41.4799166  41.6517448
   2.6141407  81.3106537  15.8495438   2.0781662  80.6784630  16.3283956
   2.9950000  81.8657970  16.5299797  82.6802063  62.4983740  26.5220070
  83.3957291  62.6803255  27.1312213  82.6492882  61.5432405  26.4672661
  77.0538949  39.3127267  77.0203102  76.6190385  39.3595045  77.8717435
  76.7276048  40.0752656  76.5425015  83.3893585  79.3576765  13.9505625
  84.0797901  78.9332914  13.4412122  82.9903698  79.9793673  13.3418441
 104.2971325  85.3698063  34.1096020 104.8790550  85.6289196  33.3951354
 103.4506416  85.2226448  33.6876631  86.0426331  56.5779591   9.6200383
  86.1407280  55.6349564   9.4882822  86.4080429  56.9699097   8.8268912
  81.1233521  92.1419716  24.0316224  81.9109440  92.6745796  23.9209008
  81.4265728  91.3585091  24.4903874  38.9739942  46.8583887  77.2417391
  38.8708781  45.9327142  77.0210052  39.6898555  47.1597116  76.6823006
 110.4885483  54.1705179  32.9860926 110.4476452  53.3881998  32.4360633
 111.3479900  54.5489788  32.8006935  96.3310242  56.4625835  29.3823719
  95.9556866  56.5426922  30.2592587  96.6081142  55.5482864  29.3230581
  23.0901479  26.5676610  81.7253185  22.4506520  26.1378067  81.1574269
  23.8834333  26.6245191  81.1926806  58.8045262  56.3906877  88.4990916
  58.2359742  56.7143171  89.1978345  59.4302892  55.8196084  88.9446578
  31.4119290  49.6440523  86.8832904  30.8312415  49.6425455  87.6442325
  32.1260022  49.0545289  87.1257580  67.8395510  46.1024475   7.8916591
  68.3581018  45.5802679   8.5037601  67.0103121  45.6302357   7.8167713
  91.9711781  51.3848639  37.4851489  92.6918697  51.7767143  36.9919062
  91.9507504  50.4727697  37.1954989  64.9117613  92.8497696   9.2140949
  65.8024740  93.0128098   8.9038068  64.6653223  92.0184135   8.8086849
  83.2311630  92.8366470   0.6358927  83.0942440  92.2984886   1.4155498
  83.7207317  92.2718334   0.0379469 104.7112176 104.3850821  88.3567322
 105.6280038 104.3735998  88.0817670 104.7409579 104.2085331  89.2970398
  76.8677759  85.8696556  37.5494075  77.5701475  85.2457905  37.3658538
  77.2234726  86.7166805  37.2805953  49.2006254  59.8212671   9.4052368
  49.5178652  60.6382275   9.7901660  48.2745743  59.9845314   9.2263401
  80.3296471  78.9635563  28.3049321  81.2146091  79.1626644  28.6105919
  79.9585629  78.4085035  28.9908266 105.5835841  26.6973608  91.8994211
 105.2163360  27.5809114  91.9259406 106.1496828  26.6963499  91.1275633
  82.1466541  41.3571787   3.1310156  82.6506710  41.7406130   2.4132553
  81.6084576  42.0781946   3.4576720  86.3736057  53.7868929  37.2963929
  86.4009380  52.8692913  37.5674772  85.6156445  53.8422394  36.7144346
  81.3033772  97.4633026  27.3008323  82.0926571  96.9572735  27.1079493
  81.6230297  98.2397747  27.7603436  41.9978952  69.0209723  48.0927515
  42.1217632  68.3392811  47.4323130  42.0364141  69.8410702  47.6006222
  76.5090322  79.2624712  46.6982317  76.4388037  79.6924639  45.8459377
  75.9236050  79.7619581  47.2674608  48.4415864  56.6562860  80.2823270
  48.5258435  56.0227125  80.9948659  48.8225602  57.4618547  80.6318271
  88.6954689  92.1692085   3.9564338  89.2247486  91.3799191   4.0709311
  87.7952480  91.8766499   4.0987301  70.6492472  83.1535912   5.1178962
  71.4475393  82.7614403   4.7640824  70.8601809  83.3426666   6.0322201
 100.9949112  28.5655737  42.7792072 100.9909248  27.6514363  42.4953604
 101.0806561  28.5203052  43.7314844  83.0695820  86.5726852  23.0616951
  83.7098694  87.0446491  23.5941553  83.3233547  85.6531525  23.1410217
  75.3504610  88.4255600  15.5462849  75.6312990  89.2794991  15.8751583
  75.3793716  87.8525066  16.3124466  89.6222210  81.9831753  26.2163234
  89.5460606  82.2004414  25.2872229  90.5547428  81.8107033  26.3462973
  42.3098039  34.9456518  89.4292498  43.0862283  35.3166215  89.0099901
  42.6499890  34.2462461  89.9872247  77.4113512  70.3175020   2.2691624
  76.8675995  69.5333099   2.1942814  78.2920551  70.0211191   2.0394909
  42.6476002  46.7334127  17.4164355  42.5843668  46.3622475  18.2964742
  43.3720398  47.3566771  17.4708450  90.9006310  82.0305824   3.6794183
  90.3572559  81.2796116   3.9182109  91.3148308  82.2971439   4.5001578
  51.8453931  36.4731328  83.9486319  51.9715547  35.5467336  83.7434644
  52.7182531  36.8575017  83.8672489  71.5453672  72.9534960   6.7635983
  70.8457088  73.5184813   6.4357305  72.1750355  73.5566473   7.1585125
  79.1292953  96.1356544  53.6489487  78.6073542  95.9441376  54.4281292
  78.6285496  95.7572174  52.9262686  49.6496915  49.2238824  79.5314813
  49.4012975  48.3147066  79.3643427  49.1373395  49.4747274  80.3001178
 108.4823513  75.9042358  18.9449394 108.6442375  75.5355215  19.8133135
 107.7911568  76.5515184  19.0846205  55.6187916 101.1972237  46.3261175
  55.1295567 100.6817245  46.9673204  56.1006784 101.8368149  46.8504572
  77.5182962 104.1716480   3.4623238  76.6267633 103.9326096   3.2088178
  78.0700111 103.8068390   2.7703968  96.7446804  74.2904377  25.6255460
  96.6162491  74.0865278  24.6991801  97.4007797  73.6591911  25.9210157
  60.0192833  92.9250908  22.1050572  59.4083643  93.6304951  21.8919373
  60.7212019  93.0131721  21.4602423  92.1931076  79.2349195  15.1975155
  92.0060349  80.1716137  15.1355183  92.0494461  79.0225077  16.1197293
  18.5805991   9.9613380  48.8219738  19.0735342   9.9367618  48.0018282
  17.8282454   9.3903732  48.6664295 106.4491272  81.4894390  29.0911937
 105.6223297  81.0548687  29.3004394 107.0553207  80.7729912  28.9028597
  24.8697569  11.3753318   0.4180057  24.7135642  11.4175319   1.3614330
  23.9950468  11.3896846   0.0295389  10.7306960   7.7798461  49.6615362
  11.1074450   7.9012966  50.5330467  10.8853056   8.6125850  49.2155838
  72.5543833  91.3543987  11.9576490  73.4935665  91.4280033  11.7881048
  72.4983168  90.9631157  12.8294206  70.4502726  59.0409660   2.5081199
  69.7104788  58.5565186   2.8745171  71.1290169  58.3788204   2.3773712
  80.6926632  74.8237514   9.4117427  80.8772850  75.3072309   8.6065125
  80.7759476  75.4761124  10.1072443 106.6784000  97.4777222   7.3273808
 107.5973892  97.6199055   7.1004933 106.6973019  97.2087002   8.2458025
  57.4224949  80.1197243  22.0539975  57.3400354  80.0898838  21.1008239
  57.1242619  80.9973621  22.2928476   3.3332588  97.4333096  34.2401624
   2.7418663  96.9785690  33.6404157   2.7652790  98.0245495  34.7342038
 103.0139161   2.3473071  21.4642501 103.7099362   2.4912929  20.8231139
 102.5767470   3.1956672  21.5377641  80.0450897  80.0519085  43.2573557
  79.8610115  80.9878826  43.1779146  79.2753839  79.6237755  42.8825426
 105.2076912  85.3254318  44.2010784 105.1123810  86.1447144  43.7153673
 105.0511932  84.6414185  43.5500288  77.9882669  85.6572819   8.3179152
  77.8208208  84.8376942   8.7831903  77.1179962  86.0148716   8.1418765
  98.2479095  88.4073257  26.5216827  98.1160545  89.2836761  26.1599469
  97.9518604  88.4758377  27.4293661  52.5147103  32.1977823  90.8000905
  52.1306466  32.6008623  91.5787156  51.7626237  31.8928831  90.2925176
  72.1876240 106.7030716   7.9832888  72.5707769 107.0874023   7.1947968
  71.3489199 106.3452816   7.6920992  80.7191753  91.3451290  27.1359539
  81.0531521  92.2384071  27.0537663  81.2772655  90.9409523  27.8003454
  99.7919178  76.4764118  34.6519399  98.9658546  76.0533094  34.4177842
  99.7582436  77.3266506  34.2135429  71.7622187  24.8406028  23.4050179
  71.0513403  25.2422904  23.9045572  71.6203978  25.1369476  22.5059652
  58.1754446  99.4688702  53.2870531  57.4300671  99.9934769  53.5793591
  58.8362598  99.5909595  53.9687014  42.2703599  26.3443010  77.5706125
  41.9207763  26.7078416  78.3841610  41.7936563  25.5229061  77.4510181
  73.0516671  45.9563177  86.5942586  73.8223981  46.3611429  86.1963475
  72.8910398  46.4723508  87.3842848  29.8648547   7.3510902  89.5527938
  29.7302484   7.5206058  90.4851982  30.6717443   7.8192251  89.3382877
  66.0861301  38.5706758  29.9362016  66.3022137  38.4984899  29.0065074
  65.2543497  38.1055069  30.0255895 108.0204010  97.1297455  17.1091080
 107.5710869  96.8126392  16.3256598 108.8919640  97.3784256  16.8012369
  86.6015530  81.0224724  40.1390076  87.4479198  81.3463593  40.4472113
  86.2920570  81.6978073  39.5353746  76.1391687  36.9574373  90.3006266
  76.0324716  37.5652330  89.5688933  76.5102338  36.1688440  89.9048123
  56.0294008  52.0627689  16.0213172  55.8139658  52.0328426  16.9534779
  56.0436201  52.9959297  15.8086181  71.5763569  79.9898481   1.7049885
  72.1470022  79.9170446   2.4700326  70.6895685  79.9670362   2.0646022
  72.8215981  76.2958431  37.6843476  73.4665585  76.9261980  38.0051470
  72.4954033  76.6800404  36.8705773  12.2429945   1.3391590  22.6459241
  12.4775794   2.0382785  22.0356512  13.0356219   0.8072471  22.7169085
  86.2810802  73.1482983  22.8363061  85.3974247  73.0256462  23.1832075
  86.5250683  72.2887278  22.4930334  97.8997327  26.1768627  26.6884875
  97.5092698  25.9610557  27.5353646  98.4417153  25.4175472  26.4741683
 112.0743419  13.1182670   7.8373826 112.5151921  13.9230251   8.1098485
 112.6355840  12.7584934   7.1504980  13.8459827  89.7711182  47.4670315
  13.8334800  89.4129848  48.3546209  14.7749950  89.8914719  47.2703791
 109.3792249  13.6088943   8.2564920 109.2636062  13.7850856   9.1902053
 110.2583123  13.2360076   8.1901741  12.1238231  80.6560914  86.3086373
  11.6639184  80.4804628  85.4877401  13.0367088  80.4354780  86.1236805
 106.2755729  21.9969367  39.2759967 106.5473319  22.2618961  40.1547289
 107.0613623  21.6116809  38.8882470  43.6554289  83.3207607  28.3240676
  43.0563927  83.6065197  29.0137959  44.5279551  83.4913635  28.6787891
 106.6385934  40.3753679  88.4542629 106.2839434  41.0040586  89.0829227
 106.1209986  40.5121725  87.6607812 109.1807270  67.0935583  56.6557646
 108.9117336  67.6603365  55.9328318 109.3505955  67.6947260  57.3810053
 110.4775715  87.7777958  40.5046272 109.7559071  87.8187943  39.8771286
 111.1781025  87.3253345  40.0347662  86.5729523 106.1821365  50.9262800
  86.9621563 106.2064648  50.0521135  86.3708878 107.0966339  51.1240244
  72.0115614  81.2788105  45.0616980  71.6515207  81.5865803  44.2299032
  71.3406372  81.4972019  45.7085323  94.3221188 102.5112820  39.5154715
  95.1937866 102.1494961  39.6752739  94.4862747 103.3503151  39.0849924
   6.6337969  11.9901180  14.9739420   6.3603594  11.4007472  15.6768751
   6.0289385  11.8033885  14.2559493 103.7309552  23.4463691   1.4786215
 103.4117843  23.6821460   2.3496960 103.5203887  22.5168418   1.3898671
  56.2227201  87.2002983  49.7764826  57.0303917  86.7568874  49.5170832
  55.7517910  86.5527058  50.3009701 104.3520069  69.7840738   8.4330088
 104.6788502  68.9506245   8.0942470 104.0850163  69.5893145   9.3313497
  20.7043936   0.7772064  25.7821846  20.8652785   0.6662559  26.7192221
  21.2290003   1.5396118  25.5377197  94.9388981  96.6081524   2.8993922
  95.0909805  97.5508404   2.9660353  95.4991150  96.2267876   3.5753760
  35.8348512  24.0915267  80.7870674  35.4550933  23.3484046  80.3182555
  35.9721421  23.7681549  81.6774667  98.8972950  73.0313635  26.8323207
  98.9268780  72.8981400  27.7797413  99.3246841  73.8769150  26.6958904
  87.8882790  73.6320925  47.0927334  87.5637817  72.8827047  47.5920963
  87.8915977  73.3310986  46.1840963  71.1925888  74.0899324  24.0240598
  70.6215906  73.3838749  23.7212753  71.7740011  74.2620659  23.2834077
  64.2594004  68.7633228  24.1548872  63.9160776  69.6430206  24.3113971
  63.8881779  68.5080910  23.3103251  77.9122829  72.7766275  30.7380319
  78.5907364  72.3166084  31.2323117  77.9345465  73.6716604  31.0766435
  73.4090137  69.0454626  45.4038429  73.5430241  68.7506485  46.3045931
  73.9933300  69.7976160  45.3085661  64.1349840  95.5943680  29.0965891
  63.7189627  94.7437763  28.9564157  63.6545420  95.9779835  29.8302412
  11.4174415  75.3749704  20.4751182  11.5803291  76.2628222  20.7935834
  11.5662719  75.4280758  19.5310521  34.3183469  34.0681474  64.9616802
  33.7845515  34.6658628  65.4851663  33.7005519  33.4078805  64.6476543
  48.3963251  81.1177826  15.0428140  48.7786245  81.5399933  14.2735159
  49.1431284  80.7302856  15.4992795  84.3025780 102.8629494  25.5203915
  84.2717457 102.3460960  26.3254642  83.4857750 102.6512814  25.0684428
  49.9511528 104.1041279  28.2248878  50.2435303 103.8347626  27.3541451
  49.1103935 103.6619949  28.3426452  13.6684611  20.0494193  19.9187541
  14.5904639  20.2833938  20.0254941  13.3880618  19.7760581  20.7921839
  68.1791687  75.0944328  36.5391636  68.9738846  74.6509266  36.8357515
  67.7641582  75.4056644  37.3436069  85.9494114  83.1228065  58.5232735
  85.3624535  83.5477257  57.8978491  86.7872238  83.5712051  58.4082031
  22.8243589  73.0580664  21.1423659  22.7338886  72.1082115  21.2186599
  22.4454808  73.4005451  21.9519258   5.0046542   1.2165737  24.9623036
   4.5862009   1.9915008  24.5873189   5.9374144   1.4310455  24.9760556
  11.3863757  19.6971130  26.2238121  10.5654623  19.9251842  25.7875562
  11.8546870  20.5282020  26.3025808  55.2367926  96.4827633  35.5094647
  54.9213028  97.1250057  34.8736787  56.1769247  96.6509533  35.5734348
   4.8658802  82.3644638  53.8184929   4.6126224  83.1642056  53.3575153
   4.7362568  81.6665840  53.1763124  61.0346317  99.4798374  60.1299620
  60.8166933  99.5763874  61.0570049  61.7319298 100.1182365  59.9800968
  72.2026488  79.0235823  92.2605670  71.2789914  78.8179939  92.1162619
  72.5458619  78.2651418  92.7330113  32.7819276  78.5167599   2.6767281
  32.8008056  78.5049534   1.7197873  32.7979398  77.5932693   2.9280156
  97.8637978  72.2045653  81.0059226  98.6052939  71.6764849  81.3018048
  97.6900956  72.8022533  81.7331291  71.6794491  20.9771299  34.3697071
  71.4436722  21.3727379  33.5305762  70.8471775  20.6776142  34.7355580
  36.0349679  49.4181728  42.1658182  35.2837348  49.9930048  42.0193720
  36.5703845  49.5185471  41.3787460  51.8462801  20.1725173  37.3423696
  52.6344204  19.8454690  36.9086552  52.1718931  20.6308270  38.1170702
  38.7484121  41.6818142  15.9345090  38.0025196  41.9339705  15.3901792
  38.5003972  41.9493294  16.8194687  44.2627907  51.5440655   7.0330364
  44.1606236  52.0934010   7.8102261  43.5042477  50.9605169   7.0508039
  41.7014408  31.7986536  17.2534370  42.1046209  30.9512019  17.4418557
  42.1713829  32.4171257  17.8127921 107.4671170  78.1435674  74.5612955
 106.8239161  77.5206035  74.2230022 107.8561303  77.7004664  75.3153229
  68.9725494  36.8059421   5.1012385  68.2707596  37.3274088   5.4908478
  69.7458458  37.0157504   5.6249011  29.9722314  19.5313585   4.2580000
  30.7994342  19.1628027   3.9479467  29.8180079  19.1001499   5.0985396
  89.7965666  67.5171786  82.0463407  89.8623177  67.9881924  81.2156451
  89.8354527  68.2021707  82.7138031  61.5807009  33.3686781   5.0925750
  61.7666626  32.5098991   4.7129065  62.2012663  33.4498262   5.8168292
  59.1482401  12.6536477   9.6537292  59.9503946  12.7908039  10.1576853
  58.7156057  13.5074973   9.6550524  63.8613653   8.4477693   8.8276482
  64.5622110   8.4424257   8.1757122  63.7317324   7.5252253   9.0475124
  75.6275702  48.3455038   0.0842251  75.9906292  49.2280197   0.1589181
  74.6792269  48.4748793   0.0958466  63.8217640  30.6657791  23.3778477
  63.0148888  30.5539775  22.8751707  64.4351339  30.0429153  22.9879093
  41.7079306  22.4920130  31.0125470  41.9979239  22.8979611  30.1956367
  40.7918930  22.2636724  30.8545423  25.0894928  32.2376037  13.2425857
  25.3376293  32.9805422  12.6924026  25.7272625  31.5569186  13.0277622
  23.6341739  32.5397444  19.1431391  24.3461204  32.6206732  19.7778165
  24.0658760  32.2722983  18.3317590  54.7734880  38.0476165  29.2302513
  54.1534996  38.6419296  28.8075948  54.5793772  37.1901488  28.8517046
  63.6041260  17.5218523  40.6538248  63.7761354  17.2390234  39.7556877
  62.7005577  17.2535133  40.8205366  22.0987795 104.8329275  71.8229521
  21.2659834 105.1665848  72.1566475  21.8505667 104.1568153  71.1924804
  45.4298162  44.8376513   6.3696468  45.6964159  45.0335789   7.2678500
  45.8412743  43.9953709   6.1760050  90.1679039  69.4496918  18.6805487
  91.0285664  69.0610170  18.8368165  89.9104214  69.1228056  17.8185248
 112.3269889 101.2447708  81.0527194 111.9147059 102.0888489  80.8689308
 111.7952534 100.8658379  81.7526448  28.4595011  55.8862434  57.1331084
  28.7794207  55.3784227  57.8787649  28.9420412  55.5396690  56.3825882
  84.3293854  49.7134324  89.6392376  83.8613650  49.2915332  90.3597859
  84.5641181  50.5769198  89.9791226  34.7972106  79.8671961  35.2593231
  35.0409555  79.0456939  35.6858850  35.3755712  79.9228907  34.4986439
  92.4380585  95.1521795  83.1947244  91.7709395  95.8011740  83.4183109
  92.4802062  94.5786350  83.9599049  57.1013975  37.5257158  40.2333260
  57.8737450  38.0614829  40.4140711  57.4552298  36.6728520  39.9810195
  16.8926537  28.2614779  18.4309840  16.6378701  27.4310207  18.8330483
  17.1611488  28.0252981  17.5430870 111.8460295  83.1673933  63.3974409
 111.6378281  82.8226066  62.5291061 111.5596077  84.0802503  63.3676767
  53.7166643  51.6471338   2.7703491  52.9086542  52.1457005   2.8919464
  53.8023567  51.5576696   1.8212000 104.7843215  83.8259905  73.5556174
 104.2224881  84.4781559  73.1369877 105.1515385  84.2783158  74.3150819
  65.4322672  50.6054592  39.1846371  64.5298243  50.8485174  39.3913841
  65.6279659  51.0773754  38.3751750  48.7804985  35.5662751   1.7720371
  48.9209604  35.4386401   0.8338413  48.7677860  36.5166759   1.8852027
  76.2305689  39.2933917  22.8583527  75.8542728  38.5699153  23.3595657
  75.5647612  39.5027804  22.2033072  67.8282356  33.8664937   9.7784668
  68.3495951  34.6488237   9.5985347  67.6250458  33.9235878  10.7121086
 112.2335955  54.7502389  72.5256479 111.3298508  55.0638520  72.4922002
 112.7130219  55.4483619  72.9717493  56.6597986  33.6566639   0.1635347
  57.2128773  34.1114235   0.7987735  57.2496223  33.4465194  -0.5604670
  29.7113132  63.8486099  22.7551651  29.1756988  64.6373367  22.6699376
  30.4298234  63.9790010  22.1363163  38.5279536  24.7641325  30.0535417
  37.6859331  25.0644875  30.3956246  39.0748668  25.5495834  30.0399137
  29.3063951  41.1874294  37.8774309  28.5817575  40.5731201  37.9947186
  30.0491977  40.7671738  38.3108568  46.1208581  37.9154890  90.7811515
  45.7709836  37.1288602  91.1995229  47.0294141  37.6941411  90.5767796
   6.8133496   2.9592292  88.3464492   7.2599601   2.3266427  88.9091248
   6.3346385   3.5236375  88.9535010  61.2803745  10.0185359  32.5867438
  62.0099735   9.6900904  32.0613503  61.0079670   9.2676693  33.1142163
  93.7151763  79.1541975  83.8454181  93.5288235  79.4219893  84.7453028
  94.6698901  79.1788214  83.7810284  12.9483889 100.1949423  73.5400451
  13.1828593  99.7092455  74.3308366  13.0300711 101.1150330  73.7910271
  42.7136469  25.3914881  10.5471992  43.0398798  25.7520962   9.7227192
  41.9899607  24.8205662  10.2892101  90.8958340  65.2120399  37.6614165
  90.1521683  65.2135849  37.0587707  91.5931988  65.6597996  37.1824312
  54.2773056  41.6437054   8.9630902  53.5644579  41.9126511   8.3836508
  53.8485146  41.4513350   9.7969753  81.1529255  28.6930609  35.3086734
  81.8816948  29.3005610  35.1818848  81.2558365  28.3797693  36.2072778
  78.1513718 100.5452687  19.0368795  77.5026486 101.2425048  19.1330636
  78.3968434 100.3210217  19.9344814  69.9935484  27.9554677  21.8121862
  69.4105053  28.0848193  21.0641503  70.8315229  28.3211279  21.5287590
  49.2376328  22.9254580  45.7481384  48.4766579  23.4634733  45.9665203
  48.9249659  22.0243645  45.8287811  38.0815721  40.8985329  37.3779225
  37.1685052  40.6255293  37.2884321  38.5727000  40.2686357  36.8504262
  47.0075989  29.3639660  60.7757187  47.7354383  29.9478388  60.5622387
  47.4233818  28.5238194  60.9693861  55.1770258  23.7649155  18.4876382
  55.2140999  23.5845017  19.4269514  55.9189367  24.3477941  18.3262360
  80.5286503  46.6017771  20.6519294  80.0686836  46.0007524  21.2379622
  80.9109974  46.0363150  19.9808908   9.9580144  96.7792822  20.4433489
   9.7308969  96.4061177  21.2950516  10.6287240  97.4333948  20.6396174
  95.7029912  31.3745707  67.7360094  95.3457400  32.1817821  67.3658550
  96.3936183  31.6685837  68.3299959  87.0406342  57.3077154  20.6308961
  86.4241982  57.0702314  19.9381876  87.2935295  56.4720726  21.0232997
  97.1878621  74.6226495  89.4943530  96.4405438  74.0684765  89.7193891
  97.7974698  74.5104616  90.2237505  24.9429369  22.4807739  27.7282333
  25.5830503  23.1909442  27.6819229  25.3249979  21.8536091  28.3421731
  23.5071826  30.6294703  41.1219168  24.3947864  30.7369351  41.4637423
  23.6025333  30.7233429  40.1741123  74.4794083  24.9125957  26.1563993
  75.3519678  25.1772022  25.8650994  74.2586803  24.1639853  25.6022382
  40.1211786  11.8622971  19.8783100  39.8488760  11.0187638  20.2396035
  39.9422145  11.7902887  18.9407504  62.7848244  32.5183678  30.8192396
  63.1956005  33.2349348  31.3030005  61.8874025  32.4889731  31.1508989
  56.4232111  38.6225176  26.1860657  56.9160891  37.8194427  26.3545036
  56.1383200  38.9147520  27.0518994  76.1370707  10.8655322  18.0304396
  75.2234173  11.0144913  17.7869749  76.6165733  10.9159875  17.2035372
 102.3641822  67.7921026  86.6880131 102.5270793  68.3972066  85.9644497
 103.0260035  68.0170124  87.3419524  36.8668365  48.5177946  26.7954206
  37.2614694  49.2312956  26.2940073  37.1245003  48.6903572  27.7009940
 110.3321597  89.0862768  69.5314825 109.9894139  89.9468558  69.2903078
 109.5713612  88.5065644  69.4947064  94.7516295  97.8157156  85.3203714
  94.6316144  98.5047215  85.9738976  95.0220105  98.2809370  84.5287341
  11.7194699  87.0695472  16.3598311  11.1986827  87.6869655  16.8734539
  12.5505304  87.0075024  16.8307042  98.6611411  72.7803677  91.3495300
  98.1040618  72.0026057  91.3808213  99.5539471  72.4353188  91.3411203
  73.3508253  50.9933996   8.0824548  72.8254557  51.7313576   7.7732098
  73.0598354  50.2526808   7.5505775  45.5089235  72.2335291  11.4679885
  45.0114441  72.6396894  10.7582128  45.8764696  71.4398193  11.0791910
   4.5055483  96.2208431  89.5389444   4.1813610  95.7540100  88.7687472
   3.9324997  96.9837301  89.6154088  68.2823229  15.3768432   2.9269648
  68.1948853  16.1552238   3.4771568  68.8282871  14.7810304   3.4399569
  52.1393871  21.0749412  32.5859785  51.8004608  21.9699073  32.6058865
  53.0757141  21.1694717  32.7608538  44.3614244  35.5772734  23.3821702
  43.8747644  36.2603664  22.9208946  45.1884747  35.9941292  23.6239338
  58.9340496  18.2535565  18.0986416  59.1699886  17.6620317  17.3840356
  59.6366882  18.1467795  18.7398362  45.8706093  42.1760321  27.1889043
  45.9528351  41.5140724  26.5024066  44.9315977  42.2181511  27.3697734
 112.7285954  82.8624623  88.8545928 113.0146357  82.8398030  87.9414118
 113.3973977  82.3671287  89.3274331  90.7304665  62.4126648  75.6916118
  91.0851571  61.6099899  75.3093314  89.7868487  62.3522174  75.5427325
 110.8916664   0.3827175   5.2918321 110.9362030   1.2489375   4.8869726
 111.4067268  -0.1790837   4.7127602 110.1824519  83.8008826  84.5318503
 110.0113293  83.3568400  83.7013239 109.3331238  83.8195746  84.9728990
  62.1859026  57.1521759  10.7207525  62.1756172  56.9635916   9.7823697
  61.2629890  57.1548986  10.9746373  68.4696436  17.6395702  25.5007434
  68.3374977  16.7190421  25.7274485  67.7369785  17.8513503  24.9223137
  78.1600046  59.1108847  36.9402385  77.3365736  59.0287352  37.4213314
  77.9078436  59.4848394  36.0959601  60.3532982  12.0433712   1.0916536
  60.5518198  12.6386678   1.8144572  60.9928751  12.2662342   0.4152624
  66.9048643  57.1139956   9.9859416  66.5710592  56.3891602  10.5145478
  66.2750721  57.8213787  10.1245081  55.5408621  66.6496372   4.5131701
  55.7726908  66.0965729   5.2592319  55.0588322  66.0684824   3.9248392
  54.6047544  49.3330479  25.0074887  53.6848259  49.3553209  24.7439146
  54.7670317  48.4171820  25.2335215  46.0558747   8.8906066  73.9801920
  46.5424871   9.3815248  74.6423412  46.7067098   8.6827104  73.3097959
 101.1783072  92.9970830  90.3246469 101.9643828  92.8001564  90.8340910
 101.4373395  92.8443711  89.4159043  48.4798384  43.9177370  24.4417667
  47.8592825  44.5603609  24.0979981  48.4628248  44.0514946  25.3894234
  60.7405996  48.6153412  13.5757625  61.3561392  48.6157179  12.8427279
  60.6697702  47.6948500  13.8285697  72.6164007  53.5969067  19.2347133
  71.9024038  54.2343855  19.2423069  73.3726025  54.0880632  18.9135301
  73.7115002  49.5889235  17.8207123  74.4119978  49.0150881  18.1309593
  73.0125904  48.9914417  17.5546837  80.3925991  38.0667400  27.9522419
  80.4010582  38.4164906  28.8432169  79.5292425  38.3004951  27.6113629
  43.1211329  12.1993506  23.5892177  42.9946899  12.3079515  24.5317936
  42.4851513  11.5295994  23.3378410  67.7727795   4.9934259  22.9553366
  68.0428314   5.5427080  22.2194076  68.1425381   4.1324270  22.7599168
  36.6938877  29.9788904  29.2296171  36.9977331  30.0815320  30.1314902
  36.1207843  30.7313824  29.0828538  77.1455336  82.7818871   9.6587318
  77.5238562  82.9639149  10.5189455  77.4855852  81.9180679   9.4254518
  81.7146346  63.4552234  87.9540161  82.0751330  64.1452377  88.5109288
  80.9101626  63.1856101  88.3971519  36.4192867  45.8389997  26.5050268
  36.9170284  45.7856798  25.6891584  36.5246773  46.7463779  26.7910242
  42.6793766  61.3855076  20.9068608  42.8184986  62.2641468  21.2602282
  43.3993483  61.2591171  20.2888846  51.2970829  40.8563900  30.4196954
  50.3867102  40.5623293  30.3883195  51.7386675  40.3409672  29.7447371
  96.0133168  84.6147483  64.0283263  95.2821061  84.5494001  63.4140909
  96.1285350  83.7239688  64.3591869  70.1775408  50.5349112  25.4291844
  71.1042356  50.5367279  25.1894736  69.9119759  49.6185350  25.3520012
  44.2921685  25.2701919  85.1701534  45.0801801  25.8005159  85.0517321
  43.7471246  25.7813518  85.7683760  66.9646215  41.7066622  20.9759355
  66.7068243  41.2040472  21.7486906  66.1822510  41.7163229  20.4245377
  67.5582552  18.9997566   7.9128665  67.8927231  19.5900428   8.5880882
  66.7895842  18.5913658   8.3111095  70.8983585  78.7431067  83.7577933
  70.9292719  79.5535296  84.2662108  71.7094013  78.7481897  83.2494474
  50.1861142   9.3114536  68.1446350  49.3252706   8.9060228  68.2485521
  50.0185060  10.2511470  68.2161749  83.1272984  41.9236898   9.4143939
  83.5261440  42.7292395   9.0853947  83.5873318  41.2227154   8.9526236
  82.5234505  98.2707136  78.3244574  82.6024720  97.3841732  77.9722739
  82.4034163  98.8249510  77.5533259  81.9858786  87.6504987  88.2218695
  82.4841496  86.8332117  88.2208935  81.3952967  87.5718492  87.4726987
  80.3091049  35.9364772   6.4658827  80.3545284  35.3950429   7.2539276
  80.8354282  35.4646468   5.8204418  79.3598700  47.8923416  25.9520578
  78.8405466  47.6623726  25.1815701  79.3399239  47.1061516  26.4977098
  39.5118713  64.9891758  22.0332718  38.7778664  64.3907404  21.8941975
  39.5910358  65.0540018  22.9849887  85.4441643  27.8320360  57.1165991
  85.9499264  28.2893825  57.7883720  86.0354424  27.1524906  56.7928028
  72.7120113  25.3596568  28.2391024  73.3776236  25.1984525  27.5703669
  71.8880653  25.1065111  27.8228569  60.2870178  37.0876908  43.7581587
  59.6126604  37.5364351  44.2681646  59.9282312  36.2139392  43.6030340
  94.6510029  19.3422794  28.9038086  93.8824463  19.3102932  28.3341384
  94.9698257  18.4400272  28.9267850  48.5152531  43.5620403   6.7321062
  49.2684603  43.5120630   6.1435336  48.0942059  42.7058363   6.6555071
 110.2171252  14.2505186  85.2727384 109.9840591  13.3314817  85.4042143
 110.4932044  14.5536964  86.1376632  85.9771538  34.7956848  13.6624122
  85.5751705  34.0246654  13.2621932  85.4569054  35.5316305  13.3399904
  54.9205065  59.1125441  17.5612247  54.4307375  58.9614153  16.7528200
  54.2722225  59.4630289  18.1720614  48.6645317  67.8303623  14.2944288
  48.2324648  68.6341429  14.0054882  47.9470778  67.2180319  14.4573426
  81.5086842   7.2679663  10.2835321  81.5642262   6.7559892  11.0903943
  82.3606586   7.6987177  10.2140665   7.9957818  17.5603549  82.6398695
   8.3206891  16.7747705  83.0797887   7.2503041  17.8410833  83.1706113
  75.3243419  78.1721490  70.5402816  74.5659301  78.3669274  69.9897302
  75.8811471  78.9469712  70.4637945  36.6074872  41.2436438   2.2135916
  37.3902702  41.6337347   1.8246074  36.4371967  40.4666710   1.6810991
  52.9574013  39.6896100  28.1352091  52.4743509  40.3859758  27.6902723
  52.8246593  38.9171910  27.5856829  44.5183039  40.8561659  17.7546561
  44.8181868  40.1404524  17.1942508  43.5685444  40.8710814  17.6364672
  60.8632132  97.9170006  92.0239451  61.0724565  97.9826134  91.0922024
  61.7149445  97.8646677  92.4575899  50.8459425   9.3393117  20.0585961
  50.0501394   9.8624736  19.9625206  51.5201759   9.8429435  19.6025312
  42.6046848  35.4115939  11.0261190  42.5644112  35.0867724  10.1266181
  43.3291435  34.9281096  11.4231503  74.0233517  48.6663961   5.2611232
  74.5821714  47.9581881   4.9411353  74.3890333  49.4574976   4.8653072
  38.9480829  41.0880709  31.0897803  39.5608687  41.7744589  30.8259654
  38.3490705  41.0037184  30.3479576  88.9887902  92.3390692  74.1376877
  88.6900613  91.5204781  73.7415791  88.2744261  92.9562824  73.9797044
 100.5252740  71.2135988  71.6093767 101.3937136  71.5855997  71.4555538
 100.6958720  70.3816240  72.0509041   3.6262368 105.0716322  75.3537429
   4.4000243 104.8343771  74.8426712   3.1663655 105.7107084  74.8093832
  76.5988588  26.4774442  30.2786160  75.9522915  26.7456651  29.6257448
  77.3970985  26.9440246  30.0309300   9.0199564  67.7111273  86.0445315
   8.5681437  66.9044679  86.2923211   9.4717120  67.4919766  85.2295965
  78.1519648  97.5636833  77.7090633  78.2146498  96.8739050  78.3697546
  78.4789321  98.3479374  78.1498194  55.9164286  34.6398807   6.9516850
  55.3125668  35.2139473   6.4804870  56.3997030  34.1835237   6.2629062
  61.5801096  33.6838150  14.3049502  62.0246220  33.3706951  13.5171700
  61.8254471  33.0555201  14.9841321  72.9580116  47.5133371  16.0188985
  73.8617802  47.2104502  16.1066175  72.6405001  47.0916033  15.2204263
  60.9210730  54.0919256   4.8066238  61.8495178  54.0144253   4.5870596
  60.6586027  53.2052374   5.0538713  64.7978544  54.8522711  20.8535838
  65.3788042  54.1070890  20.7004952  64.0697241  54.7168493  20.2471828
 106.1673066  46.8262308  84.8354155 106.6452214  47.0465665  85.6349665
 106.5651366  47.3751091  84.1596246  42.3921824  22.4158096   9.4657665
  41.8890810  22.9550815  10.0759363  42.2360992  21.5170240   9.7556925
 110.1602147  27.1404283  89.0072176 109.8418901  27.2449415  88.1105692
 110.2092121  26.1930768  89.1350848  73.9383507  37.8621292   9.5353627
  74.7454071  38.2923746   9.2529076  74.0289593  37.7827048  10.4849482
  47.7968931  43.7839699  16.8540871  47.7570629  44.7077799  16.6066670
  48.6660480  43.6767626  17.2404885  84.1407916  84.4679730  90.2034013
  84.9198100  84.9297517  90.5134416  84.0270850  84.7686666  89.3017990
  74.1515827  31.2457013  19.4081533  74.7306728  30.9862924  18.6915016
  74.6458578  31.0404706  20.2017522  61.6576147  74.1166258   2.7258873
  62.3830700  74.1240406   2.1014762  61.0134602  74.7177505   2.3517945
  93.2986256 100.3585499  83.6855144  93.0576560  99.6081894  83.1422603
  92.4747273 100.6414335  84.0822524  89.7418114  70.8439069  77.4045289
  90.4020545  71.3631754  76.9455397  89.3368432  71.4583641  78.0166364
  89.0147114  58.6299801  18.5604203  88.1611919  59.0619040  18.5259426
  89.4613075  59.0407991  19.3006933  81.6341635  89.6626275  78.6278510
  81.8264910  89.6648639  77.6901746  82.1410701  88.9284223  78.9745725
  90.8252713  83.8161724  59.0226543  91.7083165  83.5104316  59.2299879
  90.2609441  83.0677860  59.2167914  62.4524784  42.2623539  32.1194839
  62.9305172  41.9558144  31.3489366  61.7024136  42.7379417  31.7624831
  63.9086649 105.5762213  89.5043516  63.5860178 106.4011973  89.8670453
  64.8580858 105.6894081  89.4593877  46.3459969  72.3492479  26.6775513
  45.8068180  73.0158091  27.1032429  46.3398075  72.5916624  25.7515764
  44.9691582  58.2940006   4.7048268  45.8044815  58.3070946   4.2376047
  44.6611071  57.3917532   4.6194851  52.9484940  59.3570185  19.7441757
  53.5945368  59.1531706  20.4204226  52.1495438  58.9180470  20.0360966
  57.9853535  30.5344605  37.0551682  58.6833429  29.8821497  37.1146083
  57.8260040  30.6298447  36.1161566  50.5665636  17.8892970  14.5532846
  50.9013319  16.9946408  14.4920194  50.8862114  18.3194721  13.7601852
  88.7648010  16.7034221  22.8563571  89.6273804  16.7985177  22.4524450
  88.9290905  16.7905784  23.7953186  79.7746181  48.0545235  16.1164522
  80.1946259  47.1957493  16.0681713  79.3346977  48.0585337  16.9665611
  41.9527912  71.1425686  27.2693872  42.1682835  71.3004684  28.1885505
  42.2400618  70.2440548  27.1069670  69.1350600  89.8582500  61.1845672
  69.4981310  88.9833444  61.0469139  69.8604223  90.3635448  61.5516627
 110.4394576 102.2785013  92.0850547 110.6785247 103.1876247  92.2655531
 109.5186469 102.2179716  92.3393785  18.0977724  88.4483569  85.8599884
  18.4740828  89.1421311  85.3184188  18.7101553  88.3554094  86.5897656
  68.6683941  31.1317730  32.7039242  69.6174479  31.1635470  32.8244162
  68.5329723  30.4476666  32.0482635  30.2667998 104.3062370  78.3247280
  30.3522490 104.7315949  77.4714995  29.3291853 104.3370836  78.5148990
  68.2111692  34.0232897  13.0273569  68.7569523  34.2497325  13.7804019
  68.5285950  33.1634474  12.7514100  10.1202582 100.1857536  83.9923370
   9.8240374  99.3894690  84.4332612   9.5453165 100.8734625  84.3280912
  57.2841406  64.0873575   3.5115933  56.9018555  63.2128048   3.5840827
  57.5546551  64.1553593   2.5959355  97.9894733  67.1121693  52.7412462
  98.6193275  67.3563671  53.4193897  97.1361732  67.1887445  53.1681442
  48.6042690  25.2393746   7.7488428  49.3524122  25.6359720   7.3024952
  48.7937212  25.3522253   8.6802965  93.8334462 101.4565247  46.1748541
  92.9107997 101.2093084  46.2367857  94.1899726 101.2709158  47.0435703
  49.6464300  23.3760977   5.2568179  49.6747923  24.2937183   5.5277401
  50.4912043  23.0191827   5.5310416  99.4133279  92.0108431  79.9245799
  99.5393273  91.4874476  80.7160414  98.4915110  92.2673123  79.9512709
  17.5927543   6.4945953  80.9420538  17.7446078   5.5507200  80.9897483
  16.8261098   6.6421335  81.4958799  27.3854350   9.5133941  83.2147408
  26.6861438   9.5012491  82.5612325  28.1470393   9.1572206  82.7572126
  66.7821026  36.6404557  16.8392217  66.3041067  37.3164558  17.3196173
  66.7509317  35.8731794  17.4106646  63.0921364   6.7674255  31.7420530
  63.3430576   7.6496625  32.0157814  63.9227438   6.3275307  31.5609026
   6.4194582  89.3614381  90.2370540   5.7094477  89.1622131  90.8473146
   5.9781168  89.7031944  89.4594607  22.2861624  34.3211532  11.7855644
  22.4588776  33.4710765  11.3808811  21.4474273  34.5965743  11.4155698
  70.9962654  74.4280910  26.7075372  71.3480663  74.3136644  25.8247185
  71.7544842  74.6739721  27.2375107  80.5454776  84.6734422  67.1532595
  81.1414715  84.2174357  67.7474702  79.9268290  85.1204055  67.7309478
  46.5544319  17.5691473  34.2610121  46.2161446  17.6099098  33.3665109
  45.8126879  17.8245735  34.8094678  84.0460917 104.4791287  89.2352963
  84.7554871 103.8428085  89.1453493  84.4740817 105.3300064  89.1401130
  94.5911404  87.6829594  85.2234364  93.7149569  87.2978490  85.2087403
  95.0550839  87.2500842  84.5067710  79.5354029  81.6761296  55.6768024
  78.6395642  82.0115131  55.6418383  80.0279757  82.3561590  56.1363304
  86.9530102  92.7731412  65.5877579  86.0346839  92.8960174  65.8281839
  87.2570702  93.6485689  65.3481639  64.9609566  31.4353251  28.8402820
  64.5229721  31.9315624  29.5317626  65.8021975  31.8770885  28.7245488
  94.4145298  51.6988420  26.2982655  95.0505733  52.3480892  26.5985489
  93.8515949  52.1783209  25.6904578   7.6280115  74.2032331  51.1703670
   7.6577853  75.0380247  51.6377676   7.8372668  73.5482758  51.8363035
  67.3266077  14.3978226  12.5072229  67.0398426  15.1788747  12.0339835
  67.5713015  13.7778652  11.8201935  52.7564478  12.6680958  13.6438644
  52.4214172  12.0733094  14.3148434  52.7163601  12.1612382  12.8328645
  61.0509968  28.8122749  39.5610714  61.1675310  27.8720641  39.6976542
  60.4890394  29.0914679  40.2839041  28.5822343  12.6975887  89.3402157
  29.3861245  13.1800477  89.5331598  28.5772752  12.6119153  88.3868701
  47.1344042  15.5553865  13.8316202  47.6489305  15.6560993  13.0307758
  47.6880503  15.9240365  14.5199585  57.0311403  71.5087080  18.5472763
  56.4605284  71.2135458  17.8376865  57.8753853  71.0971165  18.3626819
  54.2722988  16.5657818  36.0187006  54.5813131  16.2840307  36.8797231
  54.9646568  17.1403384  35.6919670  58.3141565  45.4406786  18.0181158
  57.5612020  45.7626295  18.5137367  58.6491871  46.2131023  17.5627637
 108.9814183  91.1462825  82.6759565 108.5090777  91.4259117  81.8917787
 109.6943614  90.6004661  82.3442507 111.0760352  81.0457485  85.7910395
 110.1209208  81.0262149  85.7309735 111.3004443  81.9747227  85.7373876
  88.5440540  38.8551283   4.4809818  89.3226337  39.2021918   4.0455464
  88.3608723  38.0336094   4.0251517  27.3703764  97.9871481  85.1751203
  26.9544600  97.2139471  84.7938019  26.7131136  98.6780708  85.0922650
  78.7324333  25.9189749  26.1472940  77.8983593  26.3789725  26.0526681
  79.2536354  26.2118483  25.3997588  30.9071112  52.7716637  45.7914829
  30.9129763  51.8600893  45.4995489  31.7040634  52.8609180  46.3141060
  92.2879502 100.8453529  87.9469675  91.4422938 100.8920115  88.3929742
  92.7014968 101.6892498  88.1287617  14.1978300  31.7302918  14.1174674
  13.3880222  32.0492315  14.5158625  14.8249304  32.4417424  14.2471373
  17.7865791  10.8987777  76.7323542  16.9435167  10.4467742  76.7666805
  18.4323262  10.2150981  76.9107533  52.1536398  42.0432758   7.3073012
  51.4593124  42.2503519   7.9328078  51.8311119  42.3799229   6.4713144
  46.4938307  48.2657480   8.0451185  47.3667622  48.4097004   8.4104991
  46.3878393  47.3144388   8.0456722  40.1204348   3.1460360  36.7862082
  40.3491402   3.1095442  37.7149677  39.7621298   4.0249294  36.6621280
  61.6985273  53.7038183   0.9595814  60.7783127  53.8420200   1.1839603
  61.7318773  52.8068447   0.6270723  95.2586269  27.6330805  27.8280354
  95.1654720  27.3961616  26.9053102  95.9980965  27.1092820  28.1363297
   8.3145045  70.2952307  86.3743818   8.6699866  70.4450040  85.4983467
   8.5103606  69.3765491  86.5584922  31.0017251   8.5977285  71.5470565
  31.5409898   7.9981344  72.0627272  31.5651130   8.8609331  70.8193529
  67.1731234  27.7238417  17.0241511  66.8796444  28.6336923  17.0718086
  67.3855257  27.5887489  16.1006427  73.0186459  99.4883221  91.9852319
  73.6944052  99.9637287  91.5019415  72.2276184 100.0152557  91.8718903
   8.1689547  84.3373340  56.3427437   7.9752348  85.0581616  56.9420016
   9.0764712  84.4846099  56.0763872  71.8063927  61.6549492  23.6431003
  71.0647774  61.5909338  24.2448854  72.5774336  61.6312885  24.2098141
 113.1792355  43.9911461  28.3562541 112.6250744  43.3911753  28.8554287
 113.0519867  44.8412275  28.7774444  58.9340401  53.8044262  18.7521780
  59.6316957  53.6378813  19.3860340  59.3522596  54.3261623  18.0672574
 108.6157796  97.1953934  81.1470294 108.4722993  97.6183146  81.9936598
 108.6005589  96.2583321  81.3417542  40.1932859  39.7247458  19.1897190
  40.5205011  38.8260102  19.1518319  39.7546339  39.7843552  20.0384021
  12.2818660  17.4370830  39.7849548  12.3840713  16.7087142  40.3975380
  11.7783116  18.0900352  40.2710808  60.9753609  28.7531734  18.8024867
  61.2662411  28.0005097  18.2875919  60.0201416  28.6918807  18.7977087
  50.9720325  11.2120533   3.3063722  50.8595467  11.5586376   2.4212407
  51.6682482  11.7476881   3.6866447 107.7427336 106.5684145  73.4212423
 107.2483632 106.1957472  74.1512752 107.0946690 107.0654886  72.9220820
  94.8769474  56.8637657   4.4158262  95.3898048  57.4499035   4.9722940
  93.9959526  57.2379923   4.4215977  96.4338207  74.7051191   8.8985395
  95.9204578  75.0880337   9.6099204  97.1473789  74.2439461   9.3394351
 106.8791339  86.2776487  64.9919379 106.2822530  86.7510980  65.5714286
 106.3298365  85.9966057  64.2601455  93.4075737  14.8216891  29.9327993
  93.0171490  15.0418699  29.0870357  93.6003399  15.6684732  30.3353310
  93.3496329  53.4557095  89.8300734  94.0614936  53.2820292  90.4459669
  93.7771270  53.8701675  89.0806038  61.7389917  23.4835975  86.8327827
  61.8276929  24.3008153  86.3423550  62.1076726  23.6799018  87.6940456
  67.7366400  20.7552433  40.5678082  68.3418846  20.0182748  40.6502008
  67.0860720  20.4607797  39.9304080  61.8452549  23.6020756  13.7493575
  62.5955248  23.9829874  13.2930338  61.6666079  22.7880454  13.2785344
  83.3411026  52.9703474  14.5601261  82.4214554  53.0150270  14.2984307
  83.7712002  52.5018549  13.8447499 112.6436087  66.9851499  60.4678881
 112.0430991  66.2747615  60.6936467 112.3224065  67.3123782  59.6276629
  84.9156761  17.0286417   2.8642797  83.9663410  17.1371174   2.9210448
  85.1845932  17.6313901   2.1710178  56.1063480  37.0807910  15.1924717
  56.4492083  37.1109438  16.0856509  56.4065075  36.2392759  14.8489797
  70.2254486  46.5771198  11.9199049  69.3140030  46.6877604  11.6492450
  70.1875544  46.5296888  12.8751767  52.1153355  45.5058718   4.9915349
  53.0203009  45.2272701   5.1317179  52.1279240  45.9406233   4.1388547
  53.5617924  75.9849072  22.5009489  52.9548931  76.1764431  23.2159424
  54.3037844  76.5701056  22.6533484  25.4755211  35.2604914  29.1708159
  25.0919652  35.3466511  28.2980657  24.7388458  35.0225210  29.7337651
 107.8346774  75.5971377  88.4427265 107.2877356  75.0951999  87.8384531
 108.6030003  75.0444596  88.5857800  55.2935553  70.3383780  16.5110052
  54.5616865  69.8983479  16.9434130  54.9383402  70.6225920  15.6688190
  57.3003149  32.9763746  25.3202081  58.1937790  33.3195710  25.3333163
  57.1074390  32.8459454  24.3917584   7.5256060  35.4852610  49.9901760
   7.2949408  36.3429182  49.6331728   7.5326346  34.9034648  49.2301119
  63.6383820  42.3075008  17.1912074  64.4113731  42.6434231  16.7374802
  62.9312706  42.3874712  16.5510261  89.9343058  68.9141899  79.7167361
  89.0092560  69.1598874  79.7044611  90.3449485  69.4951706  79.0763736
  69.7070408  50.7103539  21.8970776  69.0744972  51.1799240  22.4407911
  69.2386436  50.5365372  21.0806084  52.1067429  43.9627457  22.2184753
  51.5756464  43.2952118  21.7842245  52.2325182  44.6390867  21.5529156
 106.4042374  70.9474915  66.9373286 106.7958495  70.2842742  66.3689840
 107.0167634  71.0283321  67.6684296  96.0260770  68.7275391  69.1300142
  96.4676043  69.4197660  68.6379731  96.7250725  68.1169837  69.3642319
  56.6291904  34.5987797   9.7334099  56.1650419  34.6917462   8.9014518
  57.0471334  35.4488873   9.8708010  59.4869757  56.7316294  20.4107952
  59.1696167  57.5970364  20.6688404  60.0019360  56.4321518  21.1600351
   4.9061727   8.5962074  88.6010701   5.2489995   9.3890636  88.1886614
   5.5695199   7.9288642  88.4254304  82.3732662  36.6701269   0.7723689
  82.9061604  35.9179330   0.5145741  82.5796318  37.3433447   0.1239697
  15.4327773  84.2092443  24.4578815  15.5033349  85.0916625  24.0937543
  15.8301353  83.6442257  23.7952399  73.6636972  25.6927371  11.1119592
  73.3517790  26.3531733  11.7306387  74.0592194  26.1978674  10.4015803
   7.8992938  11.3693349  79.1899169   7.1336793  11.5359561  78.6400986
   8.0369472  10.4240625  79.1287423  58.7669324  19.7503202  49.4682777
  58.7261247  19.5209997  50.3967083  58.7069749  20.7055442  49.4546497
  51.2351560  89.0793729  20.8657813  51.3201760  89.7059048  21.5844321
  50.4370355  88.5908092  21.0671258  64.6268177  41.5542555   9.0575391
  64.9252510  41.7895412   9.9360651  65.3441811  41.8193197   8.4818995
  89.8986626  36.7139435  34.9166870  89.7301292  36.1264801  35.6533790
  89.9149227  37.5881124  35.3062940  73.3505774  74.4707489  15.3472447
  73.8056469  75.3021240  15.2132428  73.8004208  74.0685177  16.0902703
  62.5866413  44.9793863  18.0776930  63.4296417  44.5772743  18.2871997
  62.1398211  44.3299198  17.5347650  62.3440695  28.7190270  48.2782507
  63.2318783  28.9530349  48.5489273  62.4670553  28.0400062  47.6148939
  22.5883817  22.9339998  82.4401319  23.3904266  22.7551572  81.9492448
  22.0929526  23.5315292  81.8800044  74.7213173  65.5013371  22.8718948
  74.6210337  65.9361362  23.7187243  75.2675056  64.7376060  23.0579805
  70.6258392  52.9940796  30.9058309  70.9423018  53.7655497  30.4358077
  69.6766138  53.0119658  30.7838368  83.0366039  69.9252748   7.9074293
  82.8504372  70.6988478   8.4395552  83.0441284  70.2500725   7.0070505
 109.2492768 100.8735769  80.1356590 108.8918444 101.5602558  80.6986392
 109.4567010 100.1564711  80.7347966  76.0284090  44.5759249  17.7482557
  76.5060234  44.1059208  17.0647275  75.8235121  45.4249859  17.3566639
  31.7440986  -0.0162346  83.1994289  31.5580320   0.8493726  83.5632056
  30.9442329  -0.2564700  82.7317328  48.0986833  26.2248199  68.2665766
  47.6216172  26.6961114  68.9496005  49.0174722  26.2916248  68.5265673
  14.6942281   8.5891120  89.9443835  14.3970155   9.4989936  89.9401826
  14.5220517   8.2850187  90.8355135  64.3022775   6.6064804  88.5273671
  64.9110173   7.3068969  88.7620628  64.5605992   6.3514154  87.6416815
  18.0183409  99.0181225  89.5724756  17.1190165  98.7150829  89.4475079
  17.9269980  99.8683851  90.0025294 100.9048983  82.1692293  61.5146816
 101.7945286  82.4887508  61.6653169 100.9155270  81.8470066  60.6134117
 110.8622932  62.3685217   2.5651723 110.4875278  63.2231808   2.7781159
 110.1481628  61.7493963   2.7166045  46.2900925  83.7107754   7.2562057
  46.5358782  83.1052971   6.5567607  47.0396233  84.3006420   7.3367381
  15.9777354 103.9979570  56.3279975  16.4348219 104.0485113  55.4885018
  15.0642489 103.8338249  56.0938347  67.5452423  76.2346888  23.3028054
  67.7653742  76.8388510  24.0118647  67.2240210  75.4503059  23.7475395
  39.7300862  44.0050714  63.3842457  39.2792081  43.1608407  63.3986652
  40.2803516  43.9961355  64.1674197  21.9506072  12.7876585  84.8331738
  21.8467378  12.5452344  83.9130265  22.4077891  12.0443742  85.2265513
  71.0206127  55.7575607  34.2886710  70.6962824  56.4727354  34.8360014
  70.7508755  54.9626446  34.7486472  41.6849135  77.4648398  90.0894721
  42.0435427  77.4617904  90.9769468  40.7450293  77.5989168  90.2114068
  75.2960110  17.4815702   6.5848780  74.8994160  18.0525780   5.9269315
  74.5599270  17.1864331   7.1208853  62.8703547  89.6619129   5.3381008
  62.3603487  89.2173004   4.6610174  62.3187113  89.6207142   6.1192715
  50.2236032  43.9502525  12.2758508  51.0414886  43.7302017  12.7218044
  49.7544861  44.5073175  12.8970110  82.2888851  89.8841858  11.1710513
  82.1005917  89.4017601  11.9760644  81.4595795  89.8854542  10.6930482
  67.1222258  51.7381001  17.9719126  66.1882544  51.5963316  17.8175402
  67.5458765  51.4411879  17.1665585  65.9080075  25.9563701  88.3397618
  66.2476682  25.2666061  88.9099267  66.2987470  25.7746475  87.4850512
  35.0651168  14.2797058  91.1762931  35.4366922  14.8372428  91.8598982
  34.2586135  14.7248523  90.9162461  65.1235628  77.7231026  24.8559380
  65.2842522  76.9660616  25.4192352  65.9641457  78.1797838  24.8229051
 105.2374264  88.3686035  83.0276060 105.9481522  88.9034360  83.3812374
 104.6201083  89.0021318  82.6618302  51.1332940  10.2190750  90.5804384
  50.4818105   9.6367471  90.9712081  51.5196370  10.6801765  91.3249876
  92.0805168  38.8837242  33.0972528  91.3707447  38.2528830  32.9768348
  92.8640270  38.3447886  33.2063103  63.4849644  85.1067543   1.5238069
  62.9481125  85.6128788   0.9140083  64.1982985  85.6985283   1.7629376
  76.5832806  29.6981835   6.4293963  76.2554502  30.2346992   5.7076550
  77.1461344  30.2885771   6.9302630  25.4313563  13.5804002  81.6658342
  26.3401221  13.5928552  81.9662106  25.4039191  12.8793495  81.0146749
  10.2257918  92.8911679  53.6151541  11.1165045  93.1450313  53.3734501
  10.2525328  92.8012484  54.5677460  75.2705094  94.0991753  77.8011000
  74.6443149  94.8229569  77.7852011  74.9501034  93.5204142  78.4929145
  82.6464462  62.5819063  29.9687243  83.2137203  63.0606699  29.3644023
  82.1708775  63.2643700  30.4423451  50.4941225  51.7898798  12.5411427
  50.6946754  51.6846418  11.6111231  50.8115911  50.9833956  12.9473746
  91.9953156  72.1546841  14.1794765  92.6171398  71.7651081  13.5648239
  92.1594715  73.0959463  14.1219485  70.4423714  65.3595257   8.9874530
  69.9445248  66.0163832   9.4741952  70.9677601  65.8670568   8.3688962
  45.8547115  30.5162549  43.3095264  45.4512644  30.3705072  44.1652203
  45.3407001  29.9780345  42.7075768  12.4056528  81.5901750  90.1328284
  11.8809698  80.7899111  90.1099687  11.8297289  82.2428768  90.5309771
  94.7546145 102.7484530  68.6913956  94.9999472 101.8422716  68.5046399
  94.8082587 103.1905859  67.8441227  80.2800274  33.1649566   2.7814406
  80.3900814  34.0962195   2.9734489  80.9469318  32.9760671   2.1212968
  72.0491600  80.6399536  25.2893829  72.9651546  80.6562042  25.5667305
  71.5585804  80.4677963  26.0930777  32.5834655  10.2961748  78.1820023
  33.2481622   9.6621864  77.9128003  32.0158624   9.8090713  78.7793184
  88.2956982 105.3310108  13.8476932  89.0905190 104.8411083  14.0585995
  88.3911514 105.5553532  12.9220617   9.7268535  85.0460625  12.9319727
  10.2907135  84.2797756  13.0373347   8.8415100  84.7143269  13.0814564
  26.8608903  22.9063385  89.3366078  27.4899768  22.6064746  88.6804307
  26.2204265  22.1974533  89.3959257 105.5159855  41.0139465  10.7098186
 104.7532177  41.2312841  10.1739275 106.1459923  40.6445265  10.0910711
  69.5158147  24.7611396  87.1530968  69.8198461  25.3663652  87.8294835
  68.8151597  25.2350347  86.7050535  86.3079453  81.8707561   3.1357479
  86.0955715  81.7286205   4.0582055  85.8816338  82.6993275   2.9167420
  76.9889545  56.9442892  18.7059641  77.7157688  57.5458431  18.5444009
  76.2064695  57.4922276  18.6450016  97.4553299  59.3180704  11.2522864
  96.7187309  59.3242931  11.8635333  97.7908325  60.2143192  11.2723982
  13.3457468  90.3371018  73.6013389  12.7161120  89.7282260  73.9874280
  13.7115286  90.8095663  74.3491447  78.5265064  66.3918543   5.4232949
  78.2203865  66.8440437   6.2094533  79.1886282  65.7785845   5.7422429
  41.9185590   5.2179830  74.0065587  42.1711492   5.8335464  73.3184374
  42.2723722   5.5988424  74.8102987  33.8607430  52.6729107  23.3901572
  33.8669157  53.5083675  23.8572860  32.9542255  52.3715258  23.4503746
  75.1105261  70.8942652  10.1979816  76.0364151  70.9260559  10.4387236
  74.9843740  71.6546822   9.6304560  51.0459423  54.3292332  25.4760504
  51.5875435  55.0552607  25.1665664  51.3464355  54.1707659  26.3709378
  45.2979612  20.3829019  78.2459987  45.9913873  21.0252159  78.0949068
  45.3947496  19.7534006  77.5314439  60.9754658  71.5514898   7.4501580
  60.7427263  71.4157248   8.3686519  61.4661169  72.3733664   7.4463671
  58.3702517  61.8397045  26.8824148  59.0727520  61.8158150  27.5321460
  58.4951067  62.6712942  26.4251399  56.4801168  40.0978374   1.8220818
  56.3951921  39.9678135   2.7665991  56.8246174  40.9864092   1.7326531
  59.8435830   6.1900012  67.3296225  59.6243905   6.3475864  68.2479656
  59.9610566   5.2418630  67.2707141 112.8669068  98.2267349  82.3444438
 112.3863265  98.0706232  81.5314865 113.3909938  97.4354380  82.4685943
  63.7602471   3.6171501  86.1237711  64.2856263   2.9520767  85.6789238
  63.6514615   4.3109624  85.4733712 108.5442257  70.0466442   8.0539733
 108.9869022  70.8838654   7.9149169 108.4736443  69.9681425   9.0053344
  63.3672523  36.6867685  28.4776926  63.4446764  35.8209419  28.0769634
  63.7472868  36.5818477  29.3499279  99.7625351  60.2373981   5.8366054
  99.1192055  59.5334435   5.9191197  99.3004036  60.9300804   5.3645301
  52.2598218  12.8570049  81.6938711  51.4245938  12.7581327  82.1508706
  52.3246907  12.0775192  81.1421264  52.9809761  81.9485092  11.2818646
  52.5809002  82.8160477  11.2222350  53.0019331  81.6318417  10.3788078
  78.5307360  74.5980406  40.8226442  77.7298641  74.6786690  40.3046370
  78.7431622  73.6652231  40.7916117  49.0941715  75.8825731  16.0425246
  49.3984604  76.6755438  15.6011176  48.6848831  76.1988449  16.8479347
 103.2478905  59.9083614   9.4137311 103.4354401  59.1506147   8.8597637
 103.8976002  60.5615711   9.1540492  87.6651478  73.6134624   9.7461212
  88.2127571  73.9681959  10.4464900  86.8227768  73.4388924  10.1658416
  21.6321468  14.0547721  90.4579971  20.9905385  13.8720291  91.1444196
  21.3505410  14.8891942  90.0829307  72.0125294  64.6961260  35.2682471
  71.7095804  65.1324701  36.0645247  71.2746859  64.7642183  34.6622968
  42.9749441  41.6620970  24.4681621  42.7617598  40.7939482  24.1259575
  43.8491154  41.8468666  24.1247749  90.0233936  63.1991148  19.5159864
  89.5348835  63.9035892  19.0901792  90.9078884  63.2700300  19.1570055
   1.9448994  88.8307183  69.2935002   2.2131394  88.6723393  68.3884061
   2.2804211  89.7046369  69.4933141 101.7311808 105.1356571  81.1219192
 101.8566462 104.1876524  81.1641062 101.4586350 105.3012579  80.2194059
  83.5394478  74.6297359  12.8003073  83.1992149  75.5225229  12.7419567
  82.8722382  74.1507959  13.2919037  25.0776242  16.1624448  74.5601595
  25.3917407  16.9607942  74.1356540  25.0767039  15.5054777  73.8640118
  68.5506725  57.9834080  15.4206896  68.5542011  57.7757978  16.3550973
  69.3253851  57.5407887  15.0740695  50.4651785  73.8635349  12.4456048
  50.8894682  74.4165373  11.7895615  49.5376873  74.0932655  12.3888659
  48.2676363  39.0372181  11.2305295  48.7409353  39.5788622  11.8620729
  48.9547300  38.6068344  10.7217050  12.9494716  83.7699509   1.9849795
  13.8026573  83.9941311   2.3565136  12.5242282  83.2436180   2.6620170
  88.4937954  71.8091631  27.9083014  88.5342312  72.2835064  27.0778847
  88.3613777  72.4907064  28.5672379  84.5064163  89.5754814  22.7634978
  83.8698769  90.2296925  22.4753189  85.1191998  89.4991016  22.0321274
  84.0849304  83.0941963  35.9535551  83.8947964  82.8055763  36.8461823
  84.9401760  82.7126503  35.7555199  86.8951702  74.5617390  19.2565167
  87.6386356  74.3883324  18.6790979  87.1645164  75.3219223  19.7720778
  95.0070525   8.1556129   5.9010214  94.5184232   8.9786815   5.9071136
  94.3373776   7.4803066   5.7927340  68.7566090  85.9053993  17.7168429
  68.1971979  86.3019943  18.3846843  68.5776043  84.9672604  17.7807164
  87.8590390  92.1844118  77.4059737  87.0146271  92.1729844  76.9553435
  88.1899068  91.2905925  77.3174000  38.2572269  21.5265625  89.0096718
  37.4385738  21.0901563  88.7739003  38.7209844  20.8887975  89.5522741
  35.3951478  29.8147702  23.4691811  35.6136441  30.2144074  24.3110704
  34.4460464  29.6944785  23.5002851  40.2524423  19.4581954  82.6690251
  39.3362998  19.2738407  82.8762126  40.3412770  19.2224853  81.7455638
  68.3032703  73.3397579  13.0550981  68.0876303  74.0955019  12.5086749
  69.0582180  72.9397535  12.6234937  92.8281781  72.0055764  69.8147118
  93.1365916  71.3692015  70.4598010  92.6276967  71.4821344  69.0387929
  42.7974843   9.8169391  91.9276963  42.1986531  10.2251642  92.5529819
  43.6512231  10.2005308  92.1282337  71.9172001  84.1613197  17.1013403
  71.2778187  83.6267471  17.5721419  72.5707197  84.3904972  17.7621186
  65.1846027  83.9143562  11.3654542  64.6925497  83.7373924  12.1672010
  65.7581425  83.1547832  11.2638378  55.8294582  53.1840515   2.8670362
  56.2569094  52.7451944   3.6025125  55.0832319  52.6235008   2.6545379
  79.5029020  92.1085167  11.2790632  80.2302361  91.9988251  11.8915880
  79.6247149  91.4107990  10.6351829  36.6541982  97.3651600  13.7916195
  36.7160058  96.5648651  13.2701349  36.0159945  97.9057026  13.3260691
  26.5746736  13.1360452  91.0033930  27.3456144  12.9795330  90.4580650
  26.0409688  12.3488395  90.8952293  75.7144690  46.2909651   4.4078416
  76.6005707  46.5580940   4.1635001  75.4880142  45.6072378   3.7773928
  77.3696804  76.7519760   3.1418213  77.2880888  77.3030186   3.9202350
  77.6305056  75.8956575   3.4808269  61.5779781  39.5671630  31.0283947
  62.1968412  40.0805378  31.5477061  60.9497595  40.2102852  30.6998014
  99.6769950  99.1395634  62.2519720  99.3754145  99.8736113  61.7167557
  99.3144175  99.3118589  63.1209290  54.4136381  80.1103497  23.8316584
  53.5196543  79.8437119  24.0459609  54.9445820  79.3344307  24.0113091
  74.5773649 100.0331306  15.8364296  73.9738655  99.2946434  15.7547688
  74.7275257 100.3204536  14.9358034  26.9469976   2.8161352  75.0265992
  26.6082715   3.5385149  74.4977665  26.8409442   2.0431249  74.4721258
  84.5216560  77.8820038   2.8315720  84.1209030  78.7374973   2.9857081
  84.7323227  77.5551224   3.7062126  71.2342453  68.0788326   5.7471335
  71.0728025  68.2007122   4.8115513  70.3671694  68.1334782   6.1489189
  38.1162882  46.1225414   6.1523980  37.6336241  45.8786678   6.9422042
  38.0208778  45.3682232   5.5709046  89.1844368  59.6217632   1.7749478
  88.5480881  59.0691185   2.2286832  89.6761513  59.0155506   1.2209152
  20.6459521   3.9990299  65.6231892  20.1707410   3.2147901  65.3486479
  20.4355239   4.0936677  66.5521658   9.6303605   3.1783884  58.6618746
   9.0689181   3.5131567  59.3611181   9.9536275   3.9625137  58.2181609
  46.0723352  46.5807264  89.0882406  45.1258802  46.4505880  89.0288619
  46.4457845  45.8535783  88.5902149  95.8973026  51.6859913  30.4663348
  96.7523956  51.3366127  30.7172751  95.3771782  50.9125805  30.2482963
  85.3369522  67.2356033   1.3505727  85.1940727  66.4148331   0.8792415
  84.5919895  67.3015404   1.9479956  56.9915724  34.8095465  13.9594364
  57.8385115  34.4005632  13.7814975  56.3947153  34.4091702  13.3272266
 106.9450137  69.3892520  73.5229349 106.2078044  69.2534929  74.1181887
 106.5557715  69.7949331  72.7482450 105.9634018  95.3348351  14.7856438
 105.1284122  95.6970978  15.0819349 105.7261944  94.7305584  14.0822136
  65.5148411  49.4533730  34.7146249  65.2842569  49.4211054  35.6430745
  65.2079773  50.3112888  34.4213009  57.0266771  33.0603814  43.2473850
  56.1753893  33.2255173  43.6526918  56.8500757  33.0705500  42.3066711
  84.8269558  31.2422061  38.2233238  85.0069427  30.4476118  37.7208757
  84.0239906  31.0441184  38.7052369  90.0682831  41.5789080  10.3700161
  89.1209221  41.4451170  10.3409982  90.1833344  42.3605871  10.9103656
 112.5441456  29.8178482   5.7857221 113.0789375  29.0486312   5.5894077
 112.0862103  29.5909619   6.5950739  62.0471954  64.0130472  14.3611920
  61.5400410  63.6748981  13.6231673  62.6731634  63.3169031  14.5606411
  98.9881989  92.4078601  72.5686479  99.2855784  92.7802413  73.3987868
  99.4410559  92.9215186  71.8998349  18.8961886  96.6971844  90.5701471
  19.8400210  96.5696734  90.4745181  18.7382983  97.5791281  90.2332722
  52.8564786  37.9866140  72.2237456  53.4342240  37.8585069  72.9760969
  53.4478044  38.1945436  71.5003336  17.3713791  79.1362143  24.0792227
  17.0046544  78.3335209  24.4499350  17.3871410  79.7527170  24.8112822
  53.4810304   1.3115137  88.2121459  53.9968824   1.2327831  87.4096966
  52.6771211   0.8253734  88.0287466  99.5747185  44.9798584  33.3991051
  99.4290447  44.9566269  34.3448710  99.9376965  44.1188383  33.1914568
  86.6790295  53.5964918   4.4505101  86.3021660  53.0385876   5.1309139
  87.5357246  53.2092762   4.2705634  62.4902868  51.6950750  10.8235359
  63.2054472  51.9733191  11.3956869  62.0721436  52.5110626  10.5486619
  42.6285123  44.1306894  89.8960078  42.5373315  43.8622301  90.8102566
  43.0463647  43.3836477  89.4675657  48.1417513  56.3743401   4.1679466
  47.5697374  57.0615530   3.8262278  48.9389563  56.8346977   4.4301799
  27.4380492   1.0700576  85.0604123  26.7826795   0.7638233  85.6872660
  27.5718593   1.9909923  85.2844817  47.7186155   9.9002330  84.2728806
  48.0454492  10.7415836  84.5915306  47.2829579  10.1098649  83.4467531
  72.9231119  81.5172482  21.4797616  72.8240967  81.6339111  22.4246526
  73.8090372  81.1709595  21.3727212  85.7634926  18.8546503   0.7740843
  85.3154469  18.6302400  -0.0414668  85.5170536  19.7645378   0.9402194
  82.7107620  49.8516035  19.3372989  82.1616459  49.8997784  18.5547495
  83.3246422  49.1399813  19.1556990   8.1278513 106.1537426  63.3262742
   8.2390211 106.5417975  62.4583543   8.9759348 106.2749498  63.7532413
  68.8650751  34.5651484  24.8467255  68.2781267  33.8969898  24.4927669
  68.5259867  34.7412157  25.7243657  77.0506525  50.9023619  20.4354215
  76.2816811  51.4506578  20.5912638  77.3849154  50.7043695  21.3102365
  97.2436142  47.6978397   1.0096834  96.3913250  47.9878426   0.6845224
  97.6263428  47.2125435   0.2787634  54.3810511  76.5570354  18.4223568
  54.0641975  75.6637049  18.2889295  53.8519526  77.0899820  17.8288460
  54.2556334  31.3458610  16.5582573  54.8961353  32.0437360  16.6959500
  54.4924068  30.9670711  15.7116830  90.4334068  21.7202091   7.6115829
  90.1516914  22.4589610   8.1511348  91.3676643  21.8710446   7.4679542
  66.4067459  64.1748857   2.3695606  66.9576311  64.6364498   3.0017903
  65.6199455  64.7152996   2.2979762  -0.1784755  67.2115474  70.9889138
   0.2611206  66.6597682  71.6358507   0.5164431  67.4717289  70.3842438
  59.9312735  43.9172697  19.6203279  59.2965508  44.5185041  19.2306149
  60.5830193  43.7785816  18.9331436 107.3602390  28.1553841  20.8389664
 107.8670120  27.4681854  21.2715936 106.8068981  27.6873064  20.2137089
  96.0837746  50.6771421   4.4914582  96.0584450  49.9611950   3.8566285
  95.8764648  51.4587927   3.9793339  65.9430218  97.1813107  14.0395486
  65.2485609  97.1121407  13.3844364  66.7438936  97.2972775  13.5282862
   4.5992087  68.5594051  88.3215541   4.9814986  69.3804603  88.0117891
   4.9115465  67.9007166  87.7012268 111.0811087  94.3283957  72.7429509
 111.2127730  93.9156168  71.8894232 110.7855174  95.2152269  72.5370694
  94.4444656  51.1566782  16.5832126  94.3612862  51.2054777  17.5355422
  94.3756485  52.0652342  16.2899125  65.9615898  42.4231100  11.4600551
  65.9880018  41.7498398  12.1399403  66.8465090  42.4299335  11.0952246
  11.9518946  66.4034503  86.3686318  11.4619444  66.8001884  85.6483680
  11.8588732  67.0236044  87.0918101   0.8798121  88.0244415  88.6777708
   0.8584641  88.9813631  88.6689809  -0.0343134  87.7634399  88.5660559
  70.1493311  65.7715607  25.2644610  69.6900702  66.1860800  24.5340633
  71.0580444  65.7074547  24.9705815  44.9229669  25.7673328  77.9840041
  45.5293702  25.6822269  77.2482992  44.1358709  26.1555879  77.6019466
  22.7246236  17.8511350  84.7243446  22.7369451  18.7266414  84.3375945
  22.6330470  18.0058782  85.6645054  70.8482312  21.1767452  68.0533588
  70.7846688  20.2564733  67.7978432  70.3495931  21.6460197  67.3844993
  96.3084984  71.6158724   6.5836030  96.4412689  70.9649515   5.8944702
  97.1834946  71.9631672   6.7568260  99.4450661  71.5515416  86.8272806
  99.0739676  71.2784904  85.9882588  99.1284796  70.8997207  87.4526859
  79.1712904  62.9802370  19.8777950  79.5403147  63.0497217  20.7582617
  79.4592905  63.7778044  19.4337559  65.1553392  96.5719414  16.5606725
  65.8619452  97.1545982  16.8389809  65.2262831  96.5482426  15.6063998
  66.0144471   4.2005413  71.7033875  65.0774049   4.1181390  71.8805683
  66.3600682   3.3163946  71.8261040   6.2308647   3.7502289   3.7689120
   6.9679119   3.4881631   3.2172555   5.7188846   2.9492623   3.8809615
  79.9489495 105.5948036  89.3958995  79.8950049 106.0794657  88.5722354
  80.7551762 105.0842827  89.3210352  65.4759645  57.0142889  26.2488747
  64.7387934  56.4990425  26.5764928  65.1335764  57.9055262  26.1803412
  63.1355810  57.8292704   3.1283927  62.1812439  57.7617311   3.0982569
  63.4450674  56.9530106   2.8990009  62.3520803  45.1603746  26.0630178
  63.2827425  45.2728748  25.8695126  61.9135475  45.8146095  25.5190539
  42.6203299  73.7223959  20.1397252  42.5922298  72.8550482  20.5436516
  42.2056150  74.2989969  20.7814217  76.8241310  24.9666882   5.5636638
  76.7384338  25.9097695   5.4240757  76.1214161  24.5821786   5.0396621
  74.0548944  29.0891855  80.0339830  73.1190538  29.1260927  79.8363459
  74.2685651  28.1564920  80.0080896  35.4178619  14.1747920  78.5115099
  35.0053453  14.9197071  78.0742824  35.1718330  14.2708032  79.4315553
  33.7978601  21.4252298  73.4552586  32.9398202  21.7132919  73.7667394
  34.4215249  21.8510883  74.0434063 106.1715004  37.8322809  61.2169803
 105.5423973  38.3218782  60.6871188 106.7517397  37.4182241  60.5781448
  97.0682526  99.0957260   0.0166018  97.9958820  99.0005398   0.2326289
  96.6671467  98.2808018   0.3186492  37.4177121  31.6751211  86.0800994
  37.9453658  30.9644525  85.7157219  37.3467588  32.3103540  85.3675932
  93.7701130  61.7757845  10.8387649  92.8536415  61.5875959  11.0410106
  94.2296886  60.9573078  11.0261476  64.1979599  90.4301357   8.0508786
  64.5274973  89.7454929   7.4687243  63.6669064  89.9617386   8.6949414
  88.1140709  44.7067261   6.7852515  88.3662319  44.2216730   5.9995240
  88.8275051  44.5487213   7.4035352 101.7060280  60.6170416  14.2705691
 102.2104073  59.8056412  14.2116499 102.1879196  61.2387419  13.7251294
  24.2095899  14.6903722  84.8328525  24.7084712  14.1135328  84.2544020
  23.4025621  14.2084806  85.0137216  58.2674646  40.4920006  39.9043775
  58.0953932  40.3112793  40.8284760  59.1083002  40.9494114  39.9023056
  75.1097536  44.7707558   7.1187133  75.2564812  44.2095613   6.3572896
  74.5681286  45.4871035   6.7874664   0.0702856  99.2117899  76.3880766
  -0.2794935 100.0956266  76.2752796   0.3951548  99.1958588  77.2883189
  53.5190630  47.5330067  36.0726905  54.3305016  48.0361938  36.0048747
  53.3528519  47.4721956  37.0133853  94.5382023  66.5967703   8.3160263
  93.8487911  67.2011089   8.0408645  94.9169636  67.0041656   9.0950030
  11.3873910  37.7601354  88.6281976  10.9734105  38.5212343  89.0351090
  11.9575452  38.1295412  87.9538867  43.3368111  79.4202423  11.1098301
  43.1826210  78.7035847  11.7253447  44.2899370  79.4772768  11.0425305
  69.3788910  54.0678930  18.6546600  68.6071491  54.1133547  18.0902314
  69.0238762  54.0162373  19.5420897 101.2034225  95.2955818  27.5295043
 101.6905689  95.6509495  28.2728982 101.7523003  94.5830250  27.2020483
  58.5549974  40.3128355  83.9206338  57.8615045  40.9422414  83.7227869
  58.4498262  39.6258275  83.2624626  60.7562208  49.6773815  20.1664352
  61.1364412  48.8059092  20.2768946  59.9278927  49.5215511  19.7127628
  57.8781079  42.7623575  82.2522939  57.9005574  42.0090120  81.6622019
  58.7803411  43.0817144  82.2674179  77.7614068  44.6857851  88.7116683
  77.1417855  45.4153554  88.7064389  78.1462239  44.7046487  89.5879031
  96.5747356  80.5209160  23.1010962  96.9071579  79.6402693  22.9273510
  96.8251133  80.6968212  24.0080690  84.6894073  84.1067886  41.4961433
  85.3258610  84.7304726  41.8456888  84.2408466  83.7637806  42.2690344
  89.5045567  19.6329367   6.1830521  89.8373604  20.2692986   6.8159169
  89.8366833  18.7904942   6.4932424  69.0711832  67.8338957   7.7870136
  68.1333971  67.7582073   7.6107609  69.1320276  68.4881353   8.4830743
  62.0260382  59.2593718   1.0635100  62.8181458  59.7619057   0.8730988
  62.2579098  58.7256432   1.8235105  94.7045517  65.3333044  28.8267303
  95.4684734  64.7839975  28.6508846  93.9989662  64.9317503  28.3196449
  28.6132335  15.5761974  85.4497326  28.5212325  14.8038976  86.0076946
  28.6942243  15.2232521  84.5636726  92.2090721  56.1435127  36.4343929
  91.2658405  56.2887144  36.3604927  92.3359680  55.8477306  37.3358583
  54.4746541  41.0232370  83.6180169  54.3023347  41.9370000  83.3909238
  55.1937055  40.7646673  83.0415339  99.8215581   1.9172573  14.5185840
 100.6109382   1.7048454  15.0165749 100.1035739   1.9004821  13.6040246
  89.6313000  70.6675339  14.8292124  90.4951191  71.0302114  14.6329486
  89.0863895  70.9321976  14.0880954 106.1571884  57.2383165  24.4679308
 107.0369148  56.8710852  24.3815613 106.3006115  58.1758881  24.5968485
  14.5054247   2.3744392   4.8711002  14.7462847   1.4496326   4.8167780
  14.2950156   2.5133037   5.7945073  10.7950018  80.2471488  66.5650595
  11.5800570  79.7000282  66.5888942  10.5321787  80.3290003  67.4818266
  45.1773977  61.6869736  16.4033878  44.7417355  60.8347511  16.3913310
  46.0630894  61.5076828  16.0877395   3.9868353 105.5572098  85.3497213
   4.1143082 104.7600906  84.8353440   3.9647530 105.2553146  86.2577975
  48.8248967   2.2131126  70.0376356  48.4079408   2.9633634  69.6139610
  48.2039308   1.4946287  69.9175823  55.3875589  23.2824628  57.7612174
  54.9577855  24.1371171  57.7942336  54.6887540  22.6555841  57.9480923
   3.0485965  34.2872334  23.9996767   3.1179859  34.8983860  23.2662559
   2.3603965  34.6553135  24.5538759  57.1166085  39.9929731  89.8169279
  56.6656446  39.9484842  88.9737913  56.9187593  39.1568296  90.2387847
  52.4889325  14.2609184  68.4005630  53.2669686  14.5585601  68.8720572
  52.4099015  14.8657815  67.6629126  67.6560640  51.8301582  24.4356823
  68.3714914  52.0165586  25.0436664  66.8691826  51.8431568  24.9805546
  85.0232601  34.2490077   5.6040668  85.6126881  33.8943911   4.9384439
  85.0176620  35.1922059   5.4410428  80.9123898  78.5084772  32.4593472
  81.4334869  78.2689857  33.2257199  80.0999451  78.8608027  32.8227234
 105.9538460  81.5256882  41.2398052 105.2090549  81.0532761  40.8678675
 106.5076923  81.7308521  40.4865551  43.7823247  29.0747468  85.5771768
  43.7858724  29.8368947  86.1562682  43.0917882  28.5115449  85.9267432
 104.4225594 106.3658541  76.6104114 104.5587870 106.5567940  77.5384283
 104.5340344 107.2100943  76.1733020  30.7550096   4.6110408  88.1858632
  30.0318908   5.1190631  88.5536248  30.4393624   3.7073915  88.1901259
  37.4600696  52.2116106  75.6022799  38.1184243  52.3623769  76.2805629
  37.6325511  52.8873651  74.9466586   8.4566782 103.0837219  63.5500968
   8.9635752 102.3697584  63.1633985   8.4881495 103.7816017  62.8957212
  53.3054066  77.4120665   8.9468557  52.9701519  76.9490004   9.7145832
  54.2355394  77.5412464   9.1323251  98.7761021  32.3059940  23.0703807
  98.0517292  32.7152228  22.5970435  99.4763184  32.9582095  23.0470371
  68.1468153  75.7636261  11.1743999  68.4792757  75.3145838  10.3971863
  68.7967348  76.4427471  11.3550222  12.9623176  83.9248085  38.4583759
  12.3192360  83.2196236  38.5317111  12.5156738  84.6940041  38.8120651
  13.8573646  20.5302446  87.4672973  13.8718270  19.5731561  87.4697161
  12.9686927  20.7556598  87.1921957  48.0636739   6.4808147  80.8036530
  48.6292218   7.2487276  80.8854676  48.1063031   6.2497299  79.8757446
  65.1839066  57.4448681  16.4313114  65.9767723  57.4891806  16.9657564
  64.7695684  56.6202497  16.6853988  93.0361176  82.1929169  13.0597591
  92.2536373  82.1616364  13.6101902  93.0905342  81.3199234  12.6709783
  88.7711525  74.2904425  13.1928074  88.1829071  75.0451326  13.2179999
  89.4288635  74.5212221  12.5367713  24.4452670   1.3691329  22.5767922
  25.0482275   1.8326950  21.9956064  25.0133135   0.9244728  23.2059360
 108.1205082  38.3935285  40.5743980 107.3279953  38.0820942  41.0116100
 108.5668659  38.9222884  41.2357664 106.6431999  65.7634830   9.3410224
 106.6151428  66.5677261   9.8593241 107.1645927  65.1573992   9.8673677
  89.1223907  74.1826963  29.2299771  90.0233841  74.4665575  29.3844652
  88.6381721  74.4962740  29.9938083  75.4108763  68.1351757   2.5264761
  76.0384607  68.3140278   3.2267487  74.6169281  67.8553629   2.9820895
  96.2386036  81.7248249  28.2834911  96.9393730  81.8431473  28.9247012
  96.4342785  80.8855057  27.8669763  82.6719189  72.1922159   1.9232146
  82.5076866  72.4855995   2.8194207  81.9867039  71.5457773   1.7534469
  97.7125835  48.8726139  12.1888340  97.1919155  48.3632755  12.8098929
  98.5752869  48.9398098  12.5980508  73.1338739  56.0691595   5.7376564
  73.6531210  56.7160988   6.2152320  72.2312689  56.3761282   5.8231372
  95.7955456  94.8941135  16.2490857  96.5859890  94.4810772  16.5967000
  95.3710079  94.2057705  15.7370389  33.9238265   7.2575092  18.6647940
  34.1504385   7.0673179  19.5751286  33.2466986   7.9316043  18.7223411
  30.2511357  53.7658231  87.8602201  31.1968993  53.8926046  87.9356969
  30.0750589  53.8298242  86.9215340  38.8687323  97.1753805  84.2156291
  37.9993628  97.5344103  84.0380705  39.0641020  97.4525755  85.1107407
  57.2928286  85.5245876  10.5214632  57.4233532  85.7502937  11.4424682
  56.6300917  84.8340702  10.5356848  75.1698637  71.1301756  44.9855232
  75.9365177  71.5745974  44.6236372  74.4349432  71.7023802  44.7648335
  16.0754202 103.8386934  88.7075407  16.3646601 102.9433840  88.5314924
  15.7829569 103.8210934  89.6187958  80.4403114  63.0568743  16.9518423
  79.5573854  62.9089212  17.2906423  80.9249401  62.2675657  17.1934175
  73.5968161  65.0876856  20.3724408  74.0612555  65.1596165  21.2063193
  74.1996622  64.6096420  19.8029804  60.4909658  55.5274599  90.8148134
  60.5278062  56.4509408  90.5657062  60.9228467  55.4922121  91.6683200
 108.2824898  50.3274298  24.4980001 107.7382183  50.3584337  25.2847934
 109.0385723  49.7975159  24.7505164  97.9231262  85.3797626  22.2120857
  98.0509090  85.4546928  23.1577539  98.3229637  84.5410442  21.9820762
  42.6388025  55.2156878  12.2229135  42.0041466  55.8475113  11.8849134
  42.1452522  54.3993616  12.3019707  22.1880149  49.3749254  78.5473907
  21.6700792  48.8317697  79.1415000  21.8132543  50.2512472  78.6359573
  21.9110154  24.4809692  86.7212224  21.8973540  25.1411359  87.4142075
  21.6930293  24.9651782  85.9248197  17.4072313  56.4915483  66.7023433
  18.3531284  56.3448827  66.7027772  17.2790765  57.2299497  67.2977984
  39.4998835 102.7978914  87.6317510  39.2180537 103.7112206  87.5805033
  39.7531603 102.6763743  88.5468018  86.9868755  70.8129978  17.5010633
  86.2467480  70.6636953  16.9127166  87.4416065  71.5677452  17.1271563
  40.8556032  62.1091032  14.0917873  41.7530489  61.9491529  14.3837428
  40.7985544  61.6717196  13.2422721  24.7019817  55.6291199   0.8955423
  23.7624027  55.4568386   0.8342875  24.7858287  56.5658760   0.7175079
  68.5483074  38.5881948  23.0371881  68.0913782  37.9786849  22.4575782
  67.8587294  39.1590977  23.3759928 104.9078655  72.0003939  10.4733634
 105.6598759  72.3359632  10.9613252 105.0109673  72.3645973   9.5941830
 102.8844452  86.2952995  20.3473186 103.3300686  86.7716122  19.6467662
 103.5168552  86.2788391  21.0656643  12.3097895  75.7096975  72.9382336
  12.0073794  76.2630981  72.2181452  12.6755999  74.9364393  72.5087202
  29.5888042  21.1674230  84.0584815  29.4419955  20.2842920  84.3972403
  29.7644138  21.0402076  83.1261677  82.3386669  33.7907863  10.7960248
  82.3724556  34.0151143  11.7259538  82.2014999  32.8435564  10.7829726
  91.6435096  86.3794416  59.6793521  92.0982262  86.7103236  60.4539383
  91.8100640  85.4368847  59.6882332  96.5771147  93.2669204  65.5376304
  95.9522196  93.9416807  65.8030331  97.3349568  93.4055560  66.1056888
  79.4733000  40.7723093  18.0268431  79.5655584  40.0784445  18.6797345
  79.7070551  41.5740108  18.4946787  13.9228915  87.2485822  82.2269452
  13.0230997  87.4248760  82.5017774  13.9943407  87.6574629  81.3644243
 107.7964112  62.9642867  87.9298795 107.7649924  62.3822903  88.6891717
 107.1000811  63.6017995  88.0877784  63.5679579  23.2639503  16.1290705
  63.6224699  23.8945460  15.4110110  64.0941572  22.5203085  15.8352327
  24.0705775  97.1263140  61.0432804  24.0976427  96.4731997  60.3440392
  23.4002302  97.7495115  60.7631195  85.7059905  64.6878677  88.6407745
  86.4436194  65.2970224  88.6080751  85.0854918  65.0953107  89.2450947
  77.0729256  39.3261170  12.0848632  77.3475361  39.0933418  11.1979365
  76.1975336  38.9487076  12.1713650   8.1138514  65.8080261  61.7096746
   7.5413416  66.0804062  60.9925402   8.8697813  65.4125052  61.2756622
  44.3924188 104.8973950  23.7286282  44.5278501 105.7709368  24.0957975
  44.9842595 104.8589837  22.9773092 110.0357625  59.4104552  63.1841910
 110.0306889  59.8127025  64.0527547 109.1524455  59.5585626  62.8464878
 105.3743458  79.7982359   9.1155094 105.0493813  79.6454430  10.0028002
 104.7296047  80.3863716   8.7222707  73.1888628  45.9442520  12.8228855
  72.8566265  45.9358311  11.9252324  72.4873590  45.5504894  13.3416140
  33.9389180  11.8382804  69.1605747  33.8887262  12.2184484  68.2835424
  34.7573280  12.1781127  69.5224464  53.5049629  63.8790226   4.7977728
  53.7520218  64.2641783   5.6385154  52.8694820  63.1995821   5.0230855
  80.3690720  18.1062865  10.4560161  79.6037054  17.7787924  10.9284437
  80.4731655  19.0067339  10.7635725  42.6103687   5.7392997  21.5199184
  43.1491613   4.9676669  21.3452291  42.3084497   5.6216908  22.4206090
 111.8475196 104.1110056  80.3772438 111.8725917 104.4611281  79.4867277
 111.0259768 104.4408577  80.7412494  71.6057301  35.4855514  11.1729193
  71.5913296  35.1916337  10.2620757  72.0229340  36.3464260  11.1402309
  63.4512281  30.8849716  16.0966730  62.5293779  30.8956242  15.8391643
  63.4664726  31.3177538  16.9503117  51.4097023  43.7886238   2.0518908
  51.4576721  44.7396612   2.1491767  52.1769428  43.4608650   2.5210893
  30.8307742   7.4714630  85.4749686  30.7503604   7.0658557  86.3382477
  30.7890557   8.4120672  85.6474483  96.0880801 105.4665869  74.3829096
  95.3628585 105.6348484  74.9845505  96.0596177 106.1958712  73.7635827
  68.3003473  65.2612543  11.6597486  67.8874254  65.2335548  10.7966363
  67.7776289  64.6638298  12.1946144  15.7755373  71.8147998  77.4809659
  16.2420176  71.3459128  76.7890263  14.8611353  71.8116766  77.1979654
  87.8516957  94.6463173  68.8640130  87.1797368  94.9926775  68.2768691
  87.4839493  93.8253086  69.1910255  21.3146496  37.0046663   3.7713090
  20.7495570  36.2591577   3.9740855  21.6929317  37.2547388   4.6142787
  98.9022347  39.7928303  78.1176186  98.7569567  40.0773924  79.0199221
  99.8295304  39.5574051  78.0870831  46.2109517  19.3641918  85.0127131
  47.1418332  19.2808311  84.8060006  45.7634401  18.9587896  84.2700059
  37.5953530  47.4533956  73.3062804  37.1673726  48.0641477  72.7062345
  38.0931186  48.0127161  73.9026213  79.1514158  51.9409990   2.6338011
  79.6977425  52.5216007   3.1635755  79.7524309  51.5701866   1.9876522
  93.2639262  50.9104570  71.0153878  94.0933558  50.5092754  70.7559026
  93.0152365  51.4521786  70.2664411  18.4493922  12.4890964  89.4626344
  18.8371753  12.7047555  88.6144913  17.5321435  12.2994583  89.2653436
  64.5025110  17.5369835  35.6916451  64.0670347  17.2115052  34.9038291
  64.9515390  18.3325243  35.4057765  82.9893014  90.1662748  86.9678992
  83.4072682  89.5852535  86.3323301  82.5133464  89.5776361  87.5537348
   6.7752837  74.1578978  69.4953931   6.8050478  74.9785321  69.0035522
   6.0743140  74.2868941  70.1343239  90.4174658  54.8428936  84.5903427
  89.6093842  54.6024595  84.1370976  90.6650111  55.6848609  84.2081833
   5.0863646  78.2387393  73.6582649   5.8677862  78.6617249  73.3023095
   5.4243563  77.6038855  74.2898977  90.4831123  73.6382389   1.3534370
  89.9874973  72.9794121   1.8398009  91.3698578  73.2814455   1.3023442
  44.8438691   7.7398984  67.1710503  44.5926522   8.5594718  67.5969827
  44.0197705   7.3752658  66.8483579   2.5507258  83.0723708  87.2349930
   2.1441410  83.7433951  86.6866821   3.4907149  83.2336181  87.1534288
  87.4202633  47.8670883   8.2721281  87.2396088  48.3865309   9.0555662
  87.1961880  46.9707012   8.5221559  64.4218016  51.2475300   2.4400102
  64.5792675  50.5162573   3.0372342  64.0536737  51.9350481   2.9950225
  52.2760152  97.3140729   0.2228549  52.6412820  97.5219876   1.0828441
  52.4684381  98.0844308  -0.3117049  81.0756588  35.9577727   3.0807331
  81.4643002  36.3024139   2.2767353  80.8165741  36.7359614   3.5742193
 107.2792098  81.1148613  65.4925931 106.5687653  80.7620805  64.9568284
 107.2576043  82.0576232  65.3283847  89.7002408 101.6230839  88.6238802
  89.5197818 100.7962244  88.1767035  89.7457120 102.2707861  87.9205695
  86.5533444  83.7374013  88.0299920  85.8582970  83.0834406  87.9559970
  86.1120078  84.5195668  88.3611581  10.1082279  29.2756224   4.8025134
  10.4311420  29.6380091   5.6275165  10.4151584  29.8891616   4.1349846
  54.7266912  50.4172611   0.5086178  55.4733276  51.0151386   0.4724415
  54.5798635  50.1620579  -0.4021751  11.3380049  86.3423055  83.6679525
  11.3600252  85.4434460  83.3396256  10.7866381  86.8123453  83.0424196
  85.7111645  49.4150352  21.1118698  85.2332115  50.2440166  21.0879517
  85.2969551  48.9200544  21.8187332  88.8126373  76.6625500   3.6555478
  88.8877010  76.2974691   2.7738941  88.0363369  77.2212839   3.6181250
  94.1255760  31.6923714   3.4112087  94.5989895  32.0687032   4.1531548
  93.4506893  32.3390317   3.2048321  18.7711095  16.2744777  84.5896900
  18.9018582  15.7978408  85.4094196  19.6004438  16.1779182  84.1215903
   7.5046728 100.0030773  82.1353448   7.9934977 100.6243246  81.5955901
   7.1328066 100.5367630  82.8375739  25.3350352  98.6907404  78.9889026
  25.3067206  99.6340769  78.8290537  24.4361113  98.4605234  79.2237687
  19.9859618  89.2552512  81.4570833  19.7201346  90.1342409  81.1870027
  20.8912085  89.1757911  81.1563325  99.6211624  15.1557446   7.0218712
 100.0184345  14.8449707   6.2083447  99.5661449  14.3762004   7.5746065
  36.3800668   4.0608423  66.6175926  35.4332685   3.9781063  66.7314327
  36.4973020   4.1964405  65.6773269  80.2082062  60.8966875   4.3923727
  80.6870079  61.2107038   3.6253178  79.3485689  61.3122368   4.3247810
  33.6123323  11.3229864  74.2268789  34.2820167  11.1365383  73.5688603
  33.4310102  12.2574251  74.1259814  97.3854634  77.2454207  88.7860272
  97.2158572  76.3587277  89.1042123  96.6143367  77.7466600  89.0512708
  51.9522618  26.3333385  82.8105957  51.4519834  26.7745130  83.4971285
  51.4323758  26.4593713  82.0168281  65.0415802  45.9936047  25.9267473
  65.6105804  45.7122564  26.6432047  65.4647207  46.7786074  25.5789614
  76.0157633  59.0461302  10.6575000  75.4297590  59.7613716  10.4099965
  76.4339161  59.3473196  11.4641368  25.5390214  11.7723768  74.5790816
  25.0509547  11.5754335  75.3786064  25.1247882  12.5634449  74.2343307
  91.6140461  18.5807419  15.1041639  91.6963100  19.5325410  15.1636779
  92.2015381  18.3337486  14.3899655  71.6042995  49.1595221   6.8965852
  70.7535458  48.9117384   7.2586030  71.4397669  49.2840719   5.9618938
  85.9428692  56.2219429   5.1538920  85.9018803  55.3756285   4.7085783
  85.0401306  56.5401459   5.1470894  56.4330435  37.6111746  18.1124151
  57.3860455  37.5549054  18.0427778  56.2442875  37.3672175  19.0185535
  23.5163210  83.4392779  73.8351870  24.0403746  83.9394444  74.4608343
  23.1879996  84.0947645  73.2197428  99.5095059 102.3967712  85.1929236
  98.9610669 102.8876894  84.5810056  99.4207617 102.8652113  86.0229349
  58.0480289  52.0230865  13.5432017  57.1619463  51.9390249  13.8953769
  58.1737280  52.9656267  13.4334588  82.6660728  37.2025561  17.6484168
  81.9555855  37.7345085  17.2899914  82.6864624  37.4258184  18.5789919
  78.3851767  85.3055477  25.4066110  78.8672304  85.6718922  26.1479974
  78.2175112  84.3966103  25.6555247  45.6428861  16.0891836  85.4813016
  46.1062287  16.7288654  84.9406082  45.7043504  15.2704065  84.9893093
  93.9621830  66.7297792   3.6194420  93.3086395  67.1755362   3.0805367
  93.4487724  66.2317610   4.2555436   9.6164797  74.5913094  70.3297699
   9.9808119  74.9947613  69.5419133   8.8041304  74.1800540  70.0345028
  27.3153017 102.1372908  75.8738482  27.8424357 102.6843947  75.2915800
  27.3448275 101.2669437  75.4765320  75.0174141  42.8849745  25.8668828
  74.6784687  43.4768629  25.1953030  75.6493711  43.4130573  26.3547254
  18.8503741  87.8754991  78.1559408  19.3122481  88.3387130  77.4571276
  19.5394038  87.4125498  78.6325455  51.7473078  31.8052626   4.7837496
  52.2288895  30.9818006   4.8626155  51.2993050  31.7408943   3.9403147
  79.7635317  34.2113948  -0.2422490  79.4438934  33.5019112   0.3151542
  79.2208004  34.9639225  -0.0069332  14.6276282  19.6774929  33.7069404
  13.7125873  19.4087474  33.6250437  14.7068500  20.4367797  33.1294954
  25.5411624  15.9184091  69.8544252  25.7328557  16.2119024  68.9637244
  26.4008426  15.8106296  70.2613223  30.5636501   4.0643709  74.0378023
  30.7474803   3.8344591  74.9486137  31.3510226   3.8019388  73.5609305
  78.8509607  22.7109258  74.1196061  79.4969033  22.3935049  73.4885562
  78.0943154  22.9540460  73.5861087   1.4664505  75.4555052  68.5035956
   0.8261393  75.5765026  69.2047298   0.9395884  75.3856915  67.7074969
  29.5702314   7.4964349  82.5672746  29.2952584   6.6285198  82.2717297
  30.0223254   7.3353355  83.3954597  51.8886041   0.7737606  55.1870144
  51.9392537   0.2118413  54.4137681  52.7805280   0.7842796  55.5342806
  61.8298435  82.8972149  25.5421829  62.2014189  83.5184002  24.9158525
  62.1204567  82.0400906  25.2305436 100.1630065 103.9975565  52.0548666
 101.0921857 103.9462059  51.8307770 100.0028130 103.2213467  52.5915802
  22.4004076  70.8052795  79.1043365  21.5675638  70.3386014  79.0349830
  22.1807860  71.6217964  79.5530022  56.8103027  49.3357611  19.1031241
  56.5512896  50.2303600  19.3241215  57.4033070  49.4351673  18.3583462
 103.6887264  81.1388588   1.8757302 102.7367401  81.2188435   1.9352962
 104.0231609  81.8098545   2.4708314  30.0050019  35.5693262  81.5218437
  29.3339013  36.0630720  81.0506070  30.8337497  35.9159105  81.1912489
  18.2305334  96.0240048  87.7202753  18.3476542  95.2232521  88.2314635
  19.0338324  96.5228050  87.8690815  16.4343070   9.6997516  71.0488046
  17.3182391  10.0572460  71.1330259  15.8612537  10.4039257  71.3520944
  64.7934865  15.6981485  84.9119693  65.5760240  15.8336656  85.4462928
  64.9970578  16.1207407  84.0775800  23.9340208  66.3833635  90.1509035
  24.3201159  66.1389869  90.9919986  23.9332579  65.5720537  89.6429572
  15.8642767  94.9250954  53.7443626  15.3064535  95.6660908  53.9809716
  15.9075926  94.9535006  52.7885664  19.4918154 104.7490995  92.0376956
  18.7732981 105.3678005  92.1687829  20.2285002 105.1333826  92.5129367
 103.1197449  78.3787959  70.7052887 103.4355447  78.2981866  71.6052926
 102.3383137  78.9273279  70.7738793  76.3928461  57.5147009  31.0060096
  76.1602068  58.4393311  30.9213376  77.0753479  57.4999142  31.6769838
 108.5878181  33.6539483  16.0396373 109.0852451  33.7023568  15.2232695
 107.8290081  34.2183256  15.8915806  88.9557743  49.3040466  16.5910172
  88.8100910  50.2305269  16.3995922  89.8184776  49.2777586  17.0048869
  83.1306934   3.2932857  10.3422189  82.6997280   3.1383204   9.5016927
  84.0077114   3.5978255  10.1091528 111.8611428  92.1600669  81.0783899
 111.4772937  92.7230876  80.4061556 111.9731518  91.3133185  80.6462944
 106.8067643  64.4364410  74.4658780 106.6196486  64.4891124  73.5286236
 107.7445027  64.6162277  74.5333767  86.9185448  78.1329441   1.6729148
  86.0499573  77.9734087   2.0421453  87.2805786  77.2590971   1.5260923
  87.4454403  29.6068645   0.7139829  86.8830109  28.9385009   1.1053821
  87.6565742  30.1962423   1.4380613  44.4698524  40.0747871  21.8048787
  45.0667620  39.5404673  21.2810159  45.0368738  40.7132769  22.2373700
  99.3961048  54.5775080  14.4027781  99.3329811  54.9912405  13.5419238
  98.5136414  54.2498207  14.5763147  91.8732735  70.9236818  67.3665989
  91.7674729  70.0241535  67.0569432  91.0313269  71.3406127  67.1834910
  42.8000498  29.2377663  17.4519634  42.8912544  28.2884169  17.5335205
  43.5449696  29.5925117  17.9372239  71.9540215  27.8449512  31.0900307
  72.9053593  27.7920794  30.9984350  71.7625046  27.3524547  31.8881536
  47.9521703   6.3587444  73.2989896  47.0149087   6.2214677  73.1613851
  48.1775617   5.7688444  74.0183294   9.6144198  80.6386178  91.9366783
   9.5921515  79.6833866  91.8795009   9.8484324  80.8186691  92.8472003
  69.6615075   6.3950126  47.3158205  69.8354577   7.1892374  47.8209722
  69.4703912   5.7284992  47.9757154  71.3603925   0.1038997  59.3423879
  72.1460771   0.5091827  59.7093547  70.6524133   0.7079284  59.5663369
  56.1437811  27.5268442   7.3597538  55.6071700  27.4831564   8.1511891
  56.5766706  28.3790476   7.4106133  94.1939889  99.4160080  52.1012592
  93.2422589  99.4713593  52.1871662  94.3512259  98.5456562  51.7352247
   9.7934705  74.6166134  46.3674688   9.4379461  75.2830029  46.9554853
   9.2278624  74.6515226  45.5960417  78.0491994 102.3699379  33.7647963
  77.6306938 101.6583347  34.2492604  77.8794621 102.1658325  32.8451443
  19.5990658  86.5857792  83.0482006  19.4313359  86.4868259  83.9853764
  19.0014827  87.2798061  82.7698994  10.5225384  72.4332905  20.4929638
  10.6357622  73.3705854  20.3351855   9.6750963  72.2248697  20.0997305
  68.7454413  62.5202990  49.9081802  69.0984581  63.1326914  50.5536175
  68.1883572  63.0591202  49.3464327  13.1269383  86.0497665  56.6910601
  14.0493178  86.0941505  56.9430065  12.9453206  86.9024181  56.2957954
  62.9399993   3.4250004   3.8631069  62.4930538   4.2647249   3.9695370
  62.2525634   2.8219397   3.5802853   3.7387079  89.1194057  77.7959204
   3.8128459  89.9755955  77.3744011   3.1428036  89.2650032  78.5307217
   2.8211710  96.2468147  68.1696367   2.8284368  95.3074932  68.3536005
   3.7291366  96.5225410  68.2953787 101.5785168 101.2806129  46.7624187
 100.8331607 101.8634129  46.6174221 102.2419177 101.8371582  47.1703243
  98.7540410  91.5963650  76.2601662  98.6193846  92.4094200  75.7732868
  98.6460434  91.8460655  77.1778917   6.9646305  87.4167538  74.1637802
   6.7135400  87.9567432  73.4143877   7.8118330  87.0451260  73.9180660
  29.6612526  15.2048492  31.9924331  28.8851477  14.9674415  31.4849615
  29.4358785  16.0425853  32.3969603  69.7801812  39.6665842  14.3722260
  70.0719233  39.0295488  15.0243771  68.8463040  39.7798426  14.5490849
 107.9738097  73.4874916  67.9166746 108.6147155  73.1295395  67.3023939
 108.4281205  74.2164469  68.3391142  12.3720443  71.5841484  55.8955812
  12.2109067  72.2902679  55.2697563  11.4999259  71.2608767  56.1217213
  12.7548969  92.3230457  44.6947813  13.6292946  92.0620823  44.4057083
  12.9129589  92.9332542  45.4151201  16.0429431  15.7702636  75.1488781
  15.9648324  15.1155757  74.4549704  15.1651216  15.8248233  75.5266142
  13.9824128  66.5992069  51.8282127  13.6818779  66.5243149  52.7339172
  14.3532693  65.7399940  51.6270971  91.0996078 104.0115070  48.4197760
  91.6578649 104.5435810  47.8527927  90.4740475 103.6008930  47.8228664
 107.3539571 100.0868893  63.3568764 106.4858334  99.6848679  63.3256912
 107.4554633 100.5043221  62.5014925   2.6611570  55.0968075   9.8312384
   3.4333715  54.5335913   9.8832023   1.9429395  54.5482302  10.1466084
  98.8240968 102.4819469  29.5007253  99.2094706 102.2824001  28.6475539
  98.0757688 101.8891335  29.5700741   7.2113657  88.2053375  55.8116341
   8.0793643  88.2307720  55.4089355   6.7760557  87.4612331  55.3956509
 102.7494822  96.5262890  65.1836205 103.4268157  95.9135151  64.8973370
 103.2033800  97.1251106  65.7765961  10.7414269  57.2073841  64.5816088
  10.4702866  57.1295738  63.6669159   9.9255508  57.3474789  65.0621843
  76.5693528  13.8599045   7.8154576  75.7420173  13.8715345   8.2967102
  76.3429754  14.1798813   6.9421780  98.5063575 101.0310268  74.0687990
  98.3864747 100.2063370  74.5396996  97.7476452 101.5600395  74.3152428
   2.0827655  76.8071461  45.7282543   1.8991858  75.8695412  45.6696796
   1.3442171  77.2239971  45.2843904  38.6459661 102.9645443  21.7353511
  37.7025414 102.8056622  21.7047930  38.8917518 102.7739525  22.6406121
  99.7935425  99.5673370  39.1170263  99.4665109 100.4071712  39.4394588
 100.5527328  99.3782616  39.6684933  44.6112085   2.8493976  71.6486835
  43.6608959   2.7366256  71.6691923  44.9599714   1.9724178  71.8083477
 112.2613160  80.8152771  48.6152124 112.2047743  80.0904369  47.9926014
 111.4243139  81.2714767  48.5283470 103.4097086  85.5669308  78.2723331
 103.1892906  84.6433640  78.1511736 104.2980812  85.5564022  78.6285830
   4.5229495  81.8959141  13.7949276   3.9988473  81.5669727  14.5252347
   4.6657038  81.1301994  13.2385671  48.7114418  18.2802963  53.1532907
  49.4127012  18.3288097  53.8029957  49.0845550  17.7680015  52.4359512
   6.8290359  78.5526848  44.2075396   7.0072895  79.3641710  43.7321997
   6.3827437  78.8356972  45.0056362  31.3010240  80.4296589  38.5296249
  32.1778822  80.2891636  38.1723976  30.9545636  79.5481014  38.6676884
  12.5430585   2.3230647  30.6702471  12.0845247   2.3191642  31.5104628
  13.1339122   3.0742645  30.7233191  81.0954998  74.4174480  47.3954248
  81.6087554  74.9965239  46.8319750  81.6389488  73.6356544  47.4938679
   7.0210189 102.6932430  60.2946901   6.9415450 101.7393970  60.3038359
   7.4748999 102.8879166  59.4747353  80.9883262   8.8426399  85.5923843
  80.1258994   9.0649318  85.9431553  80.8932353   7.9450321  85.2738190
  82.4734305  75.9619045  45.4862928  82.1870230  75.4511690  44.7290897
  81.8563126  76.6923141  45.5298233  11.4261520  67.8236389  60.4844379
  12.1760321  68.0493259  61.0348701  11.1698258  68.6513662  60.0777531
  83.3486484 100.9379196  84.5749187  82.7228115 100.9724522  85.2983570
  83.6809157 100.0403404  84.5882988   9.1554261  21.4107227  79.2057562
   8.5421897  20.7610511  79.5494223   9.7145868  20.9180355  78.6050558
   8.7071979 104.9229717  56.2906885   8.1619883 105.4985809  55.7543468
   9.4989824 105.4332256  56.4608574  10.6116307  88.7806511  43.3745813
  10.7641804  89.2620277  44.1877460  10.9946501  87.9176044  43.5317039
  16.6285849  77.1131802  46.1175680  16.1341739  76.2935781  46.1111784
  16.5381169  77.4544096  45.2278423  17.2981262  62.1126223  38.9933801
  17.9183066  61.4485788  38.6922860  17.1352196  62.6554823  38.2220197
   9.8405647  67.4684238  15.1803815  10.5077946  67.9844713  15.6328487
   9.9046588  67.7432489  14.2657268  65.4269268  59.4104654   9.6968853
  65.3222050  59.6902544   8.7874996  64.7143997  59.8457224  10.1649582
  25.8946133  94.3193817  52.1487474  26.2726402  93.4413433  52.1973896
  26.6508675  94.9024105  52.0824337 105.1000325  96.2489605  80.7110214
 104.2446457  96.1732864  81.1338902 105.7219063  95.9458637  81.3725662
  34.1830555  16.7835521  77.8690434  33.3998264  16.2592983  78.0361843
  33.9907033  17.2486591  77.0548487  35.5961275 104.3053818  69.2010736
  36.1538267 103.5526562  69.3975306  34.7309494 103.9276600  69.0428829
  10.8120573  83.4585190  59.0557003  11.0959470  83.1450844  58.1969833
   9.8580867  83.5031319  58.9910173  99.2986129  84.8234367  78.5042143
  99.7119342  84.2529106  77.8562212  99.8033641  84.6813965  79.3050194
  12.6914310  96.3696194  64.1946888  12.6198590  95.9262562  65.0399971
  12.3410141  95.7406712  63.5639238  58.0244375   6.2496948  90.9777069
  57.7173925   6.8162059  91.6855431  57.5936032   5.4102516  91.1387634
  35.0351057   9.6649074  47.3338795  35.1023082   8.9931392  48.0124426
  35.9312222   9.9818992  47.2210884  98.6558746  94.7142601  27.5120902
  99.5115636  95.1109886  27.6752758  98.8412140  93.9746761  26.9333863
  45.0033910   5.5216789  58.5883999  44.5259846   6.3498783  58.6374807
  45.8522935   5.7105064  58.9883280  50.7265724   1.6020488  47.9217386
  49.8365272   1.7508029  48.2409906  51.2135089   2.3778629  48.1996489
  32.8026546   0.7035350  16.3966823  32.1356613   1.2896919  16.0392308
  33.5436622   0.7898712  15.7969451 112.7447765 104.0598869  72.9628611
 112.8712494 104.6673203  73.6917353 113.6050699 103.6614227  72.8311205
  54.5034719   4.8333167  61.3166189  54.0661193   5.2588844  62.0540762
  55.3510571   5.2737045  61.2542677  90.3389214  88.1665421  34.8739338
  90.4306839  87.2877312  34.5058250  89.8684357  88.0335999  35.6968546
  55.6495310   7.4555015  85.3556061  55.7576800   7.7124404  84.4398975
  54.7224153   7.2304439  85.4333210  94.5081006 102.7153301  25.6060410
  94.5466946 102.7460670  24.6501136  93.6314271 102.3834801  25.7998085
   3.2886741  88.7295818  46.7036057   3.7178558  87.9056072  46.9340372
   2.3717827  88.5976696  46.9447327  16.0331559  82.8645039  70.2460766
  16.5876877  82.0851517  70.2827215  16.0895610  83.1560230  69.3360949
  20.6978631  95.9669304  74.1142416  20.4253554  95.3561878  74.7990561
  20.4468060  96.8283081  74.4477654  12.8305161  93.3193874  53.0342388
  13.0469453  93.5419846  53.9396906  12.9430902  94.1389275  52.5526619
  89.3560217  87.0412731  29.4306135  89.7948359  86.8520927  28.6012244
  89.6442293  86.3432217  30.0187397 109.5605002  90.1762867  79.1273022
 109.0958516  90.9139633  79.5224905 110.3447722  90.5663109  78.7412596
   8.4910947  74.9341631  61.4590406   7.6937276  74.4070864  61.5102959
   8.6193997  75.2616024  62.3492956  16.8975246 101.4514542  70.1719761
  16.2964332 100.7739353  70.4816532  17.5282574 101.5558624  70.8843708
  98.3721755 103.4635448  57.1253443  99.1329394 102.8952789  57.0047426
  97.8037725 103.2638931  56.3815069  56.4472676  24.2709350  42.3397827
  55.5137230  24.0708064  42.4081516  56.7643584  23.6986637  41.6410732
  16.2909865  88.3635044  52.5683784  15.7254553  87.6729107  52.9140282
  16.5744328  88.8506126  53.3420849  46.5691519  92.5877857  52.2906828
  46.8238592  91.7404842  51.9254065  47.2902250  93.1740189  52.0612955
  47.7292223   9.4408702  71.4552641  48.5176659   9.0836143  71.8638611
  48.0347944  10.2136421  70.9802103  42.1711969  88.4069824  34.4292593
  42.9453421  88.9697266  34.4137073  41.5179253  88.8841152  33.9175916
  46.2953186  98.2711315  49.2875957  46.4933109  98.6877537  50.1263189
  46.2592363  97.3357105  49.4874287  74.8622084   4.4515323  32.4684072
  74.5940853   4.1184329  33.3247876  74.6335984   3.7515449  31.8568563
  29.1437394  20.1301383  75.3122234  29.6463109  20.8849716  75.0058365
  28.6862535  19.8146629  74.5328569  36.0571504 102.3152256  78.3626032
  36.8362498 101.8863010  78.7165213  35.5171156 101.5968990  78.0330563
  25.0911904   0.8012962  44.7418833  25.0344003   0.0023269  45.2659559
  25.6146551   1.4002609  45.2742958  34.2109517   7.3877143  91.4416981
  34.8811451   6.8850326  91.9047165  34.3472178   8.2904434  91.7293644
  70.5985022  19.7310066  72.0725632  71.0879207  19.4298076  71.3070679
  70.4709364  20.6676387  71.9219637  35.3559301  23.0197238  29.7594237
  35.4711365  23.9385604  30.0017142  35.5618493  22.5338172  30.5579972
  12.7159262 105.2141476  58.2649183  13.4696817 105.7179642  57.9579163
  11.9905996 105.5085850  57.7140665 101.2868892  99.5697594  58.9464235
 101.4521800  98.6779881  59.2524624 101.2921701  99.5002079  57.9917717
 110.9021768  85.3514099  38.6814523 111.7562562  85.2941990  38.2530737
 111.0095599  84.8607063  39.4962597   8.8586235  95.6702614  61.2304020
   8.8470972  94.7179222  61.3260651   9.7865689  95.8920002  61.1530495
 110.8801892  71.9021702  10.0644302 111.7357647  72.2863483  10.2558208
 110.5297829  72.4396515   9.3541050 109.8931132  95.7850647  62.3533916
 109.2304189  95.7806110  61.6627026 110.7147564  95.6009293  61.8981647
   7.1351421  84.3836975  39.3731284   7.6404887  85.0286674  38.8782907
   7.7603441  83.6842728  39.5632768  32.6830006 102.4446392  75.9671068
  33.0093646 103.2492733  76.3699579  32.7996159 102.5830078  75.0271654
  19.7134662  22.7809715  74.0759516  20.2271438  21.9768428  74.0000820
  18.8065601  22.4809551  74.1371822  34.1647816  79.2668438  28.0097175
  34.2360306  80.1807499  28.2852674  33.2231760  79.0962934  27.9868436
  61.8343879  23.9111709  60.9614754  62.5183893  23.2677459  60.7760334
  62.2978903  24.7474956  61.0056210  37.2494864  89.0968513  73.5026169
  37.4564099  88.2534504  73.1000137  37.9299688  89.6887302  73.1818962
  61.3702751   1.8316936  57.8175974  60.5651952   2.3216628  57.6502419
  61.4311577   1.2147235  57.0883036  32.7717403  12.8662776  79.0225697
  33.5206563  13.0449199  78.4538507  32.5496949  11.9520568  78.8461256
  23.7099982   9.8165512  24.2650223  24.0664590  10.6615734  24.5390868
  23.3817447   9.9709987  23.3792305 110.9173906  88.0382919  72.1785021
 110.8952121  88.5264492  71.3554287 111.8278995  88.0977249  72.4677610
  90.5079819  44.5850546  18.3880627  90.0458957  45.3953154  18.1731426
  91.0291983  44.8042185  19.1604149  10.4192901  76.1135054  54.5063353
  11.0590100  76.2732840  53.8124657  10.7830691  76.5549850  55.2737951
  16.7962682  83.4249878  61.2606478  17.4886274  82.8167343  61.5192795
  16.5399635  83.1375599  60.3843355  57.8881884   4.0463066  51.9200373
  57.0895625   4.3578529  51.4941692  57.6106835   3.8083362  52.8046799
   9.2154843  99.7537899  77.4475336   8.5881364  99.9891949  78.1310940
   9.4309908  98.8382530  77.6252127  50.1064539  91.7012787  60.4655218
  50.9954071  92.0539856  60.4256010  49.5425987  92.4745464  60.4843807
  11.1814439  85.1542664  88.6191177  10.8186376  84.2685223  88.6116695
  10.9227359  85.5261612  87.7759075  72.2375918  10.6973838  68.1882763
  72.1202684  10.3116893  67.3201180  73.0906201  11.1294841  68.1451035
  42.0396423 106.4613247  84.3539524  41.3036823 106.3209724  84.9496746
  41.6480827 106.4415741  83.4807205   3.9566404  83.2473564  35.8276200
   4.6763280  83.1813717  35.1999855   3.5327944  84.0799522  35.6193566
  28.2284976   8.3769226  57.3804665  27.4935938   8.3103179  56.7707825
  28.8216526   9.0078258  56.9725943  37.5001345   1.1131477   3.4200764
  37.7955052   0.2458953   3.1428322  36.7145533   0.9437179   3.9400634
  24.1652894  67.2337723  59.9955130  23.4123182  67.5722933  59.5110846
  24.1849828  66.3000631  59.7856808  24.5202732  94.7320366  63.0957699
  24.0177584  95.0907135  62.3642921  25.4332566  94.8043633  62.8174496
  70.8565617 106.4148140  66.0257483  70.9233236 106.3569355  66.9788599
  70.0964403 106.9760418  65.8725357  84.2459224  81.5116405  23.8969636
  84.6725462  80.8337021  24.4210100  83.3218454  81.4564800  24.1404176
  36.3841867  88.6256886  55.1783180  36.0011458  87.8370285  54.7942209
  36.6881227  88.3479118  56.0424376  33.2074366  10.1799011  19.7105300
  32.5930674  10.3273105  20.4295945  32.7675641  10.5424213  18.9415550
  92.0170616 100.8514214  62.6626825  92.8132628 101.3327408  62.4376822
  91.3048457 101.4565659  62.4558687 110.5469836  98.1291771  31.2981653
 110.5831973  98.2077217  32.2514486 110.0784738  98.9128971  31.0108972
  23.7707639  94.6694851  40.9548903  23.2016373  94.1835880  40.3580379
  24.6572804  94.4057751  40.7083607  53.6519945   4.8357582  46.7993402
  53.1730879   4.6019267  47.5944519  54.4255257   5.3033256  47.1144152
  33.0996595   9.0801238  68.7508392  33.9291138   8.7073421  69.0496254
  33.1737817  10.0147342  68.9438200  64.1098643   5.8926105  68.2467222
  63.6365438   6.6595745  68.5691690  64.9524999   6.2377643  67.9516554
   4.8200390  63.5781765  63.5609341   4.5602092  63.6495495  62.6424456
   5.6300014  63.0684471  63.5418034  36.8169079  12.2580528  48.2409859
  36.9189589  12.3124980  49.1911697  36.6904838  13.1647109  47.9613256
  27.1668124  92.6481819  72.5751781  27.1204948  91.8552876  72.0409393
  26.4442158  92.5606823  73.1968117  41.6016982  28.2762241  91.7704964
  40.6970788  28.5233116  91.9624424  41.5252576  27.5399112  91.1636639
  48.5534621   6.2631034  37.6975989  48.5921288   5.8637523  36.8285465
  47.7529199   6.7877006  37.6847196  23.1483173  83.2633972  59.6541214
  23.7298298  83.6787987  59.0173197  22.2721267  83.3705711  59.2839336
  63.9207126  11.2740325  70.6399250  63.8659693  12.0656776  70.1046324
  63.1199122  10.7910346  70.4358053  23.2115126 104.0828705  31.4025092
  24.0961027 104.2052078  31.7471337  23.3441496 103.7469006  30.5160761
  30.2707696  81.4433479  41.5332985  30.1742506  80.5501080  41.2030935
  29.5993352  81.9439125  41.0697842  60.5681420  16.0398387  58.7325430
  60.1042748  16.5563106  59.3915749  60.8463574  15.2513217  59.1984463
  73.6129309   2.5474262  76.5186977  73.5299302   1.6830539  76.1159611
  72.9955865   3.0969238  76.0358191  71.7737318  25.9447193  58.4670353
  72.7024723  26.1485481  58.5771704  71.7113376  25.0067424  58.6474466
  78.5477687   8.3701801  48.6535549  78.5823584   8.9142799  47.8667974
  77.6680685   7.9929637  48.6454058  23.6924434  91.5019321  54.9789953
  23.9772344  92.3190689  55.3881550  24.3755412  90.8704185  55.2044058
   7.2927666  90.7711792  59.6535254   6.6493845  90.1321507  59.3470335
   7.5916541  90.4255962  60.4946375  51.4822961   3.6552429   3.8069621
  51.1422253   4.3771934   4.3355101  51.3638271   3.9442825   2.9021695
  82.6594566  91.2961388  21.5769696  83.0994223  92.1462059  21.5828681
  81.8263291  91.4607048  21.1353230  45.8029098  22.8511619  32.0241427
  46.3393182  23.6411762  32.0902610  44.9359334  23.1245422  32.3238897
  52.5673771  89.9760723  88.6502838  53.3467436  89.7218704  89.1444492
  52.3007345  90.8104992  89.0361023   2.5729427 100.6876087  32.1828747
   2.0187192 100.3667068  31.4714742   2.7565482 101.5980721  31.9514108
  37.5864625  87.3755360  71.2915277  38.0337286  86.5312481  71.3495302
  36.6812921  87.1526337  71.0742426 102.2429918  84.9428749  51.5373278
 101.3535832  85.2913952  51.5983200 102.2699021  84.5023823  50.6879330
   7.3245245  69.3163347  23.0976295   6.4874518  68.8606310  23.0088735
   7.9525554  68.7541533  22.6440167  27.4694777  79.1901684  61.0866213
  26.7410040  79.6864557  60.7134485  27.1011662  78.7733364  61.8656158
  41.9831038   0.3067588  77.2477388  41.1474592   0.6944274  76.9876623
  42.0296047  -0.5136872  76.7568827  93.3650766  74.4282055  54.5638323
  93.9550935  74.0818214  53.8944101  92.7473567  73.7162018  54.7302771
  59.2047072   7.7416992  56.5927076  59.7796656   7.0741653  56.9669485
  59.3722416   7.7015590  55.6511354 112.2344371  61.4033461  39.4751596
 113.1436861  61.4226580  39.1766214 111.7406993  61.8150711  38.7659812
  25.4483938  50.3637648  68.6374044  25.7414651  49.7778416  69.3352890
  25.4299569  51.2301159  69.0440035  29.9733233  72.3475361  26.3135171
  30.8014154  72.0265341  25.9565139  29.6600342  71.6345692  26.8700790
   2.9987791  52.3385000  71.0930157   3.1902921  53.1789398  71.5092039
   2.0888770  52.1566629  71.3280582 108.4413053  40.8438635  64.2951727
 108.0550991  40.7227421  65.1625872 107.7310012  40.6413364  63.6863327
 107.8201149  73.4594774  31.3562822 108.1747745  72.8999996  32.0472479
 107.8484558  72.9153109  30.5693221  28.7900306  70.2621515   7.3499405
  29.2777974  69.4556553   7.1829617  28.2132012  70.3545434   6.5916741
  18.4237492  60.4365921  54.3798399  18.1380677  59.5262194  54.4562292
  19.3323684  60.3785086  54.0844250 109.3776347  36.1278033  47.9851055
 110.0012262  36.2975097  47.2790146 109.0036087  35.2723980  47.7738810
 109.4503345  57.9984760  57.7278566 110.0881864  58.5850716  58.1344080
 109.9813409  57.3266363  57.3001957  11.0558343  82.4792671  54.0281773
  11.0990357  81.5514469  54.2594957  10.1292658  82.6383495  53.8481855
  84.2287014  57.8871727  68.5666895  85.0783227  58.0133295  68.9891338
  83.7171839  57.3865461  69.2022610 107.5104497  16.4965260  43.8795424
 107.1360777  15.6262982  44.0165806 108.0393492  16.4075911  43.0867052
 113.1596449  66.3186550  56.6977692 112.8311449  67.0859385  57.1663857
 112.6117477  65.5969143  57.0062017  10.9213257  74.9901438  67.1647692
  11.8705845  75.1131487  67.1680784  10.7448685  74.5098257  66.3558245
  44.7967720  66.8297005  36.2720394  45.5008698  67.4693060  36.3787317
  45.0974560  66.2581015  35.5655718   3.6016238  88.3128929  42.9203796
   4.1191474  89.0719604  43.1891108   4.1451967  87.5590992  43.1496334
  27.9221559  27.8714514  49.1024303  27.3282099  28.5805702  48.8562393
  27.9749513  27.3210907  48.3210564  92.0734094  29.9198079  84.1925812
  91.4141224  29.4609022  84.7131348  91.6095470  30.6745386  83.8300323
  62.5823782  88.1588173  48.2434130  61.8893813  88.8175201  48.2892466
  62.2987460  87.4705029  48.8450766   8.5260665  75.6406212  18.3708990
   8.5495675  76.5928507  18.4654367   7.8540879  75.3549910  18.9898443
 109.9506916  40.7997656  61.4090586 109.0035732  40.9231758  61.4720583
 110.0570975  40.0704145  60.7983637 108.7676711  45.6134462  34.6897793
 108.9575611  46.1451769  35.4627180 108.4384526  46.2385893  34.0439916
   4.7539958  61.6237783  52.6677847   4.5081747  62.3705387  52.1217537
   4.8213926  61.9851780  53.5515690 113.3183680  56.0273266   2.8742108
 113.3747265  55.4545879   3.6390799 112.7149967  55.5779266   2.2824192
  20.9664297  60.8425570  78.7367630  21.5453076  60.5925465  79.4569254
  20.2269006  61.2755585  79.1631842   4.2192078  56.3764620  23.2489944
   4.6653241  56.5354347  22.4171662   4.3218333  57.1941471  23.7359142
  66.6916642  46.6427057  86.1043960  66.1369500  47.3919599  86.3215095
  66.3784961  46.3531797  85.2474630  12.0457482  45.3528118  41.4244747
  11.5430152  44.8899364  40.7542229  11.4304543  45.4677629  42.1486521
  98.8289998  74.6409082  15.3410470  98.5956357  75.1980877  14.5985341
  98.0671166  74.6807146  15.9191322   4.0639713  62.3181725  59.1950369
   4.1427520  61.3789034  59.0283155   4.9580899  62.6510048  59.1175365
  18.5601878  20.7497406  41.7993259  18.5539877  21.5596700  42.3094320
  17.6508558  20.6330299  41.5241480   0.1253660  68.4150219   1.0341956
   0.5522691  67.5999689   1.2981585   0.0235777  68.9068794   1.8490237
   7.0424080  65.9859133  45.7842922   6.5197933  65.6190777  45.0711727
   6.5061629  65.8547306  46.5662575  21.9910693  47.3162031  17.6147878
  21.2907457  47.8013563  17.1784294  21.6058230  46.4615822  17.8082895
  94.9674283  24.6321988  69.2985582  95.5728815  24.1943383  68.7002754
  94.2457591  24.9210811  68.7400103  18.4557593  51.3889551  47.0054674
  19.1109037  50.7085133  46.8505049  17.6163268  50.9454441  46.8834782
 104.4427274  58.7312126  67.4007511 104.8773508  58.2028484  66.7313004
 103.5086624  58.5803127  67.2558928   5.4348010  57.2390604   7.8415632
   5.8240569  56.4851379   7.3984939   4.5162091  57.2268677   7.5727290
  20.6160355  45.6416845  40.2842331  21.1929202  45.6185913  39.5207500
  19.8265660  46.0856152  39.9745631  39.3562126  77.3525429  42.6865149
  39.3547153  76.5369368  42.1854973  38.5045815  77.3669052  43.1232691
 110.5614813  48.2203197  33.8283324 110.8963908  47.7641153  34.6003056
 111.1823037  48.0022717  33.1331587  24.4870543  91.8308353  36.8493271
  24.4823217  91.6199493  35.9156585  25.4115939  91.8054199  37.0959282
 108.6829017  59.7069883  82.5927925 108.5153989  59.3630648  81.7153549
 108.0519943  60.4195118  82.6952362  32.9718041  72.0421600  57.5737143
  32.3863745  72.0603943  58.3307934  32.5605392  72.6286077  56.9387484
 112.7009970  61.5623903  65.5777311 113.0262027  60.8265924  66.0964537
 113.0630871  62.3371363  66.0077190  86.9924472  46.7512226  61.3919401
  86.4717840  47.0049143  62.1540308  86.6592334  47.2989130  60.6811380
  10.5052054  77.4864912  34.9368834   9.9811655  76.6890955  35.0128746
  10.6932080  77.7366590  35.8414841   6.8136442  56.8614960  74.4414043
   7.1138299  57.5422287  73.8391447   7.5699955  56.2843752  74.5467424
  22.0836592  79.2202806  75.9850121  21.1512661  79.0354395  76.0977411
  22.1114206  79.9275541  75.3406286   2.2316822  75.0249863   5.6407195
   3.0174494  74.5838118   5.3179669   1.5417454  74.3648958   5.5736214
 110.4270415  72.1801662  66.6775084 110.8942594  72.5412035  65.9241199
 110.3225304  71.2511873  66.4718151  22.1607685  69.5069695  71.1268520
  21.6244793  69.9461555  70.4667473  23.0620337  69.6549225  70.8403826
  46.3253403  71.4437151  43.2535267  46.3289928  70.8750153  42.4835920
  45.7418299  72.1644211  43.0161810 100.8359311  83.0822563  86.0968971
 101.2769328  83.7609196  85.5858612 101.2488101  82.2653294  85.8169079
  97.9732345  60.5913496  30.3173828  98.8095079  60.1740074  30.1107407
  98.1007408  61.5111589  30.0851679  34.3772578  52.6370239  36.8790436
  33.7894607  51.9253874  36.6254759  33.7974048  53.3134270  37.2290230
 100.6790684  51.0059214  48.3677673  99.8219000  50.7164955  48.0551577
 101.3046060  50.4602194  47.8911734  11.2256670  37.1242642  56.9522190
  11.8485236  37.5782371  57.5198412  11.7723155  36.5922475  56.3739777
 101.4031742  27.7813172  72.0352125 101.1041735  27.2074795  72.7405739
 101.5489386  28.6267447  72.4597597   9.3184608  76.0121202  49.1069031
   8.6874527  76.3999701  48.5005760   8.7981975  75.4150057  49.6444988
 109.3440317  73.6148357  16.3603926 108.6728908  73.2363033  16.9282985
 108.9967199  73.5077524  15.4748762  12.7313554  53.3619022  73.7949657
  12.5905633  52.5310755  74.2489862  12.9442608  53.9825916  74.4918489
  24.1043115  61.0905647  77.2740793  23.9330101  60.1498318  77.2303438
  23.3464813  61.4508533  77.7346373  32.3200107  54.7722578  37.4055171
  32.4263000  54.7600651  36.4543152  31.9430041  55.6317902  37.5933957
   6.8727469  55.0795889  28.3378482   7.2720712  54.4831896  27.7045393
   7.4219370  55.0031757  29.1180944  15.1896083  68.1494665  65.0146151
  15.9670651  67.8510380  64.5426702  15.2788663  67.7686357  65.8882475
  94.3270956  34.7983313  29.0837049  93.8978229  34.7934985  29.9392366
  93.7325381  34.3095589  28.5146427  10.5077922  23.1570339  62.4139357
  11.4490402  23.0657363  62.2657776  10.2609658  23.9349961  61.9138479
  14.9423480  11.0090053  30.2441287  14.2524624  10.3470910  30.1976681
  15.7565451  10.5058646  30.2569509 104.1713075  85.0562668  67.7951670
 104.6961741  84.4592571  68.3283806 104.0416513  85.8238125  68.3522129
  28.3022475  82.9246807  35.2209687  28.9703298  82.9201603  35.9064436
  28.6267090  83.5515118  34.5744133  15.8255875  83.0749798  53.7495279
  16.3846242  83.4920692  54.4050789  16.4366949  82.7261543  53.1006050
 102.9414843  50.4113436  17.5258863 102.4351726  50.8526373  18.2078993
 103.4008025  51.1186171  17.0730865   2.7802622  51.0885811  53.2760191
   2.3590860  51.2613487  52.4340010   3.5438263  51.6657495  53.2847834
  52.5618172  75.5091858  47.6662111  52.0246506  75.6905127  46.8949795
  52.5021553  76.3064957  48.1924915  27.6336217  40.3444815  48.1256866
  27.9390335  41.2184477  48.3688784  26.6908407  40.3659534  48.2898045
   1.4645959  80.5977154  52.2723103   1.8167490  80.2395058  51.4575052
   1.6762355  79.9396658  52.9344368  87.3081206  68.3266497  17.6700628
  88.1861256  68.2664824  17.2936082  87.1889900  69.2587709  17.8522384
   1.8451101  65.9734488  11.1511314   2.1477591  66.8584156  11.3547659
   2.6470023  65.4794407  10.9803820   3.6855125  92.2542763  34.1184092
   3.9709958  93.1336784  34.3661618   2.7657694  92.2181511  34.3810844
  39.2803788  95.3653049  31.8454671  39.8925447  94.9514389  31.2370229
  39.4476843  94.9344254  32.6836729   3.2629052  79.9184084  61.2974739
   3.1115773  79.8746729  62.2416258   4.0860346  80.3988647  61.2088394
  34.2327571  44.1085625  49.4406986  34.7782850  43.4004068  49.7829723
  33.8669634  44.5271492  50.2199411 101.9984005  63.9468718  22.1356869
 101.1010943  63.8269329  22.4466348 102.1639369  64.8841286  22.2375965
  78.1356214  87.0357323  59.3162346  77.2093795  87.0339870  59.5576906
  78.5997914  87.1302700  60.1480007  45.2299547  80.6066608  41.8418980
  44.5647287  81.1730862  42.2328901  46.0173082  81.1499500  41.8080759
  98.1524347  62.3625183  39.8764277  98.4183775  62.8360605  39.0882254
  98.5839592  62.8282881  40.5927229  15.2558804  17.1244525  31.3276458
  15.7372118  17.7616214  30.7998562  15.8691741  16.8735122  32.0183921
  24.2264700  64.5536757  60.0543356  23.6491203  63.9385748  59.6020651
  24.5007706  64.0880299  60.8443785  13.9546585  88.4462166  58.2019043
  13.4342337  88.6893749  57.4362230  14.6225619  87.8525543  57.8588247
  41.6697741  65.0637341  47.1239471  42.4154472  64.8376560  47.6799059
  41.9597101  65.8346033  46.6361713 105.2670853  61.1027384  18.4061086
 105.6448935  60.3004169  18.7663531 104.9572293  60.8518457  17.5358939
 107.1480249  61.8758821  80.6347847 108.0166922  61.6645098  80.2927685
 106.6268121  62.0763874  79.8573732  33.6248183  73.6488771  63.6858130
  33.4743905  73.5485458  62.7458477  34.3248653  74.2986917  63.7483215
 106.3413881  60.0119972  20.9538531 107.1560417  59.5801497  21.2109113
 106.4373158  60.9109879  21.2682533  87.8242134  71.2019157  39.2655253
  88.7257145  71.5229464  39.2439747  87.5423883  71.2177801  38.3508921
  27.3453296   3.3756256  61.1312914  27.4236954   3.1558608  62.0596218
  26.4624322   3.0936431  60.8921051 100.6957029  56.4308167  31.4485598
 100.6448017  57.0127201  32.2068691 100.6393300  57.0161486  30.6932831
  13.1510615  54.0198088  40.7553482  13.8198924  54.5138884  41.2294626
  12.3207688  54.3704987  41.0776281  21.5837383  78.3858490  51.8071890
  22.2237372  77.7345324  51.5200996  21.9052291  78.6777401  52.6602316
  22.2804213  85.6570053  82.9208469  21.6372919  86.3523674  83.0590153
  21.7750382  84.9335384  82.5501442  98.6788966  13.1084043   2.0683300
  97.7855708  12.9817945   1.7486870  99.2352845  12.8157980   1.3464939
  50.2354288  84.9533272  18.1649661  50.7764673  85.3517532  17.4832296
  49.4436169  85.4907036  18.1869245 105.1173882  47.9370785  20.6258631
 104.5058893  48.5846710  20.9764743 105.4406790  48.3278465  19.8140657
 105.1660190 106.7939949  72.3971272 105.1062201 105.9195423  72.7818108
 105.2398400 106.6370106  71.4557791 101.7060696  85.5588341  62.2290754
 101.0229717  86.0112953  62.7239323 102.0635782  84.9187851  62.8445053
 107.6666503  70.5973244  42.7871895 108.0343662  69.7552824  43.0554819
 107.7646361  70.6090212  41.8350887  95.3789912  63.3236074  44.6224260
  95.3315090  64.2640924  44.4507599  95.2493559  63.2458162  45.5676079
  13.6133003  64.9600077  48.2370043  14.0442109  64.1060495  48.2730961
  14.3296635  65.5923462  48.2935953   6.2503523  76.5856075  49.6558046
   5.4404241  76.2180281  49.3020678   6.4131659  76.0826540  50.4537773
  21.6070366  49.0843439  38.3634233  21.7457557  49.0369177  39.3093300
  21.6648078  50.0177622  38.1593823  20.8448768  30.5601072  32.4978018
  20.9498334  30.5790806  33.4490418  20.1881647  31.2323070  32.3158431
  12.8715372 102.7639675  27.9562068  12.6894283 101.9875336  28.4855747
  12.0087695 103.0738354  27.6808167  13.8813615  71.2634611  80.0624084
  13.4254181  71.7478037  79.3741083  13.6700261  70.3459644  79.8898649
 101.8979822  47.9658890  10.9216857 102.7205537  48.2906818  10.5554664
 101.7108856  47.1709251  10.4224265 110.1928697  68.5619164  46.7016745
 109.3541415  68.9078426  46.3965416 110.2546485  67.6950598  46.3004637
   0.6688348  79.8938322  42.1513319  -0.0629358  80.4927635  42.2997570
   0.6944700  79.7777462  41.2015438  81.6359089  68.3953190  66.2606001
  81.7857645  67.7082634  65.6111908  82.4252461  68.3894062  66.8020296
  22.7161002  82.8799248  37.8986120  23.2942080  83.4896278  38.3571792
  22.9724693  82.9522991  36.9792271  47.6657475  18.3858680  46.6131878
  47.0699049  18.4292983  47.3610640  47.4567152  17.5539398  46.1884165
  18.0993462  92.1008396  57.8510761  17.8182244  91.6700745  58.6583185
  18.5193503  91.4068222  57.3429871 112.8076886  71.2040520  70.0309372
 112.9579108  70.5775452  70.7388592 113.3606240  70.8927774  69.3142796
  10.8555663  66.2130928  29.6015811  11.3636661  66.9668198  29.9015236
  10.8518672  66.2910652  28.6475682  11.8525839  66.5352488  43.9327002
  11.8703830  66.3555956  42.9926777  11.7126060  65.6792402  44.3375301
  42.8385782 101.9305706  22.2843409  42.7428627 101.9562721  23.2363963
  42.8719330 102.8505230  22.0220470  99.5216452  75.0682497  41.0598278
  99.0828119  74.9960518  40.2122164  99.5309387  76.0072231  41.2455130
  81.7035575  10.2287323   5.2152645  81.7247285   9.3514711   4.8329079
  81.9650884  10.8082516   4.4997322  37.2572279 101.9703579  70.1389790
  36.3622856 101.6859627  70.3245211  37.5227308 101.4474487  69.3824673
  57.2237218  21.9382858  36.1410379  57.8129054  22.3141670  36.7951107
  57.7976108  21.6897869  35.4163790  43.4798778  18.2197856  66.7025137
  43.6254270  19.1052436  66.3693285  43.6841936  17.6486587  65.9620428
  96.3689052  92.2067070  73.5465860  96.3704418  92.7709293  74.3198156
  97.2848390  92.1766567  73.2701921 108.0343763  70.2764797  87.4730873
 107.1268545  70.3351450  87.1744347 108.5557209  70.4792166  86.6963482
   0.3839390  44.5012856  44.1613579   0.0078955  45.3445625  44.4137621
  -0.3718922  43.9620018  43.9287138  10.3508508  34.1284394  52.1940613
  10.6933892  34.0775037  51.3017035  11.0939443  33.8931370  52.7496481
 105.5679344  23.7858772  50.0599098 106.0302602  23.7378883  49.2231417
 105.1802556  24.6610022  50.0695086   9.4194943  70.6035566  49.3691587
   8.8366961  70.6986761  50.1225042  10.1279318  70.0419950  49.6837950
  23.8393236   7.7193546  69.5967007  24.6405435   8.0214595  69.1689062
  23.1540418   8.2934188  69.2545462  10.6381142  85.3059578  55.2494383
  10.8455718  84.6360397  54.5979738  11.4623725  85.4520035  55.7136631
   4.0365943  72.7022886  12.3662758   4.2986074  72.6549196  11.4468539
   3.4898150  73.4861517  12.4194217   2.2175026  71.3265228  54.6370745
   1.9452120  70.9410191  55.4698277   2.0240451  72.2593212  54.7303343
  96.5235792  71.7948008  40.7709122  96.3452469  71.4033937  41.6260338
  97.4772190  71.7725468  40.6914997  36.5147207  84.6406562  10.6116402
  35.8183283  85.2430613  10.3501522  37.0986266  85.1706202  11.1542523
  21.0941601  81.4762306  33.9286780  20.1443291  81.4136696  34.0293789
  21.4283323  80.6576729  34.2954373 112.4510830  54.3107080  76.3411045
 111.5877230  54.6344280  76.5981054 112.2954382  53.8352633  75.5250454
 108.0698614  72.7981853  44.4223356 108.5572545  73.2966709  43.7664413
 107.7799259  72.0122957  43.9591408  33.3549643 101.1721230  -0.1317864
  32.7208233 101.1174774   0.5831343  33.8455629 101.9750023   0.0440641
  98.7214731  50.1647425  69.9711418  98.6685859  49.2724133  69.6288157
  98.8837467  50.7079315  69.1998816  62.5816704  19.8501205  15.9566343
  63.1491900  19.1242027  15.6974077  63.0372787  20.2594470  16.6922295
  47.8796053  98.7713528  39.4034815  48.1468391  99.6792507  39.5467496
  47.5901413  98.4682369  40.2640438 101.8528186  63.8625574  77.0029259
 101.5644549  63.2654238  77.6932240 102.2942673  63.2988739  76.3676167
   2.5367251  36.4678955  33.4600067   2.6313186  37.2671866  33.9780974
   2.2065900  36.7688656  32.6134491  83.7851001   5.4177474  44.1789913
  84.0794707   4.8272800  43.4855080  84.3723584   6.1711215  44.1173983
  10.3555930  56.0707998  29.9872136  10.1526093  56.7905617  29.3897414
  11.2685299  55.8533478  29.7988129   9.1258854  87.7995777  34.2406487
   9.1339052  87.1971607  34.9844670   9.9900454  87.6988220  33.8415146
  11.7156720  75.0248528  30.8717155  12.3080564  75.2284908  30.1479459
  11.8344569  75.7468510  31.4888358  96.3124429  90.9909916  22.5413609
  96.6473471  91.4686012  21.7824411  96.9694100  90.3150749  22.7079916
  97.1840356  99.2240238  42.6081657  96.8501614  99.3592358  43.4950018
  98.0326889  98.7995052  42.7338791 111.7974333  74.4423914  16.8992186
 110.9555449  74.1811180  16.5261328 112.4475188  73.9781141  16.3718975
   6.3169646  88.7867641  18.7345040   6.1428034  87.8472805  18.7916803
   6.3338161  88.9705086  17.7952564   9.3302196  92.4045944  58.3808041
   8.8429713  91.7402840  58.8681650   8.6797422  92.8021526  57.8019619
 109.0087385  62.4975204   5.3788739 109.6296583  62.8928804   5.9907401
 108.8485457  63.1792021   4.7262758   6.3145959  71.7895126  49.5731449
   6.6978031  72.4876404  50.1041794   5.3758311  71.9764662  49.5730734
  10.3193212  94.0195656  47.2224236  10.4980898  94.0916157  46.2848330
  10.5751729  93.1249428  47.4469852  72.7095507  83.9618492  62.1210718
  73.1007908  83.4674072  62.8412724  73.4397601  84.4509506  61.7418528
 100.4191659  70.7808590  43.5863209 100.2321242  71.4944553  42.9763794
  99.5586000  70.4301119  43.8157368  95.0109099  74.5933628  61.0632372
  95.8133410  74.1268492  60.8293629  94.8387645  74.3348026  61.9686365
   3.2027209  86.6284943  55.8513451   2.3253471  86.2956619  55.6624842
   3.5901678  86.7846584  54.9901104  13.6303818  66.2010956  63.2136488
  14.2488813  66.8724346  62.9255676  14.0521991  65.7961941  63.9715147
  26.5439582  85.5101967  64.9659348  27.0107841  85.6531811  65.7892561
  25.6378078  85.3494930  65.2291727   1.4727424  81.5341377  48.1004381
   1.4283115  82.1940517  47.4085045   0.5588746  81.3120747  48.2786703
  91.0185431  83.6951923  41.5483522  91.0802148  84.0383530  42.4397945
  91.3874529  84.3870735  40.9993124   3.5722435  81.7410278  65.0583792
   3.2845244  81.9669437  64.1738367   2.9199418  82.1426868  65.6323195
  16.8590642  18.4577655  51.9485092  16.8028808  17.9798698  52.7759695
  16.9766022  19.3717861  52.2073078 108.1618105  84.3575287  76.5506363
 108.1362908  83.9190388  75.7001591 109.0683766  84.6509075  76.6417408
 108.2862435 100.6824493   2.4118441 108.6368351 100.5569458   3.2936403
 108.8383351 100.1342010   1.8543109  36.4722157  92.9845524  73.6215496
  35.9526372  93.7781048  73.4929085  37.3668647  93.3015156  73.7455177
  30.7972712   7.4700164  19.2669249  30.1364649   8.0246448  19.6815968
  30.9339697   6.7549133  19.8883522  34.5255828  55.0265408  24.8022437
  34.6047854  55.7424879  25.4326224  35.4219413  54.7129536  24.6820903
  30.1932597  65.1867390  56.2484407  30.2933812  66.0855865  56.5619373
  29.8689222  65.2802086  55.3527308 108.7240224 101.8787956  44.8319006
 108.0405508 101.9933605  45.4921865 108.2490377 101.8226147  44.0027666
 104.6982811  97.4591446  84.2204666 105.5977999  97.2876740  84.4992065
 104.3909560  98.1458855  84.8122120  99.8384891  54.5060110  18.4694099
  99.9670123  54.3077803  19.3969965  99.6134351  53.6640835  18.0735087
  95.1233493  83.9746094  88.3120918  95.9075879  83.5026264  88.0320358
  95.1911686  84.8275948  87.8830814  66.5703369  25.4426288  38.9983034
  65.6752110  25.4496955  38.6592865  66.9097424  26.3146018  38.7965989
  20.7689095  59.8638439  52.0468807  20.6693149  60.4192257  51.2736654
  21.2032366  59.0754843  51.7211819   1.7203730  74.5959377  76.1889219
   1.1697096  75.2559757  76.6100550   1.6081904  73.8119698  76.7265463
  20.6781650  93.0194569  34.7360730  20.3808117  93.1017017  33.8299537
  21.4239287  92.4211693  34.6900558  28.3007073  81.3956165  49.8784971
  28.7479424  81.3184738  49.0357256  27.4049425  81.6459274  49.6522617
  30.9989119  85.0049496  49.6003866  31.4414263  85.7076550  50.0764275
  31.3380384  84.1999626  49.9918222 106.2733684  68.0880833  27.0910859
 106.5018444  68.8097191  26.5051889 105.7603984  67.4908113  26.5467000
 102.6522683  74.2538595  62.9477215 102.7079152  74.3039656  61.9934559
 101.7335032  74.4370842  63.1440163  30.4791832  66.3205051  42.3149157
  29.7711635  65.7958364  42.6886320  30.2705121  67.2196341  42.5684166
 111.7129818  78.7392950  46.9530487 112.2150306  78.2682514  46.2879944
 111.5296979  78.0823803  47.6246929  20.7427788 100.3622818  47.3437071
  21.1376452 100.4669476  46.4780521  21.4523458 100.5574322  47.9558086
  21.4536953  82.6778603  44.2164040  20.7743168  82.9531670  43.6008692
  21.9879103  82.0567131  43.7214136  32.8052497 100.6632233  57.7077723
  32.1267414 101.3163662  57.5367165  32.7976942 100.1014042  56.9328308
  20.8313799  91.9879627  49.1133404  20.3260970  91.4866829  48.4733057
  21.2102795  91.3255787  49.6911955  32.7954022   0.2752971  27.0811677
  33.7125424   0.1097202  27.2995019  32.6446862   1.1811637  27.3512053
  22.8250337  65.4913092  71.0019207  22.8715754  64.6059704  71.3628101
  22.0094228  65.8499765  71.3517284  92.0917939  92.8664589  60.9554672
  92.3835967  93.5563183  60.3594971  91.3978885  92.4136257  60.4762316
 107.9737113  97.8674316  69.9102926 107.0175533  97.9015160  69.9391174
 108.2060032  98.3357143  69.1084290  82.7716436  32.9186041   6.6805851
  83.3711775  33.6291010   6.4525807  83.0535652  32.1833879   6.1363327
  69.6582318  14.2436218  80.4975510  70.1103855  13.4122276  80.6409931
  70.0562120  14.8444938  81.1274624  48.1337226  18.8933467   7.6491284
  48.5092915  19.7249889   7.3600852  47.4229968  19.1437816   8.2393700
  35.3356409  62.6908112  36.9314551  36.2787247  62.5339127  36.9784069
  34.9563122  62.0528507  37.5358939  18.4280741  92.0178127  61.2002468
  17.8862834  92.1446133  61.9791031  18.1531858  91.1693096  60.8528090
  31.2867308  91.9301891  49.1397572  31.1210561  90.9995365  49.2902946
  31.3422322  92.3085976  50.0172329   7.8995848  97.1345139  35.5166316
   7.6644462  96.2229347  35.6897116   8.7236047  97.0815372  35.0324655
  56.8567682   4.1919231  54.7688723  57.5937451   4.8011684  54.8126602
  56.1492205   4.6380615  55.2342415  97.9728781  48.8304949  75.0013971
  98.6903535  49.4402981  75.1734400  97.8677939  48.8465595  74.0501165
  21.6384292 104.3016243  74.8748779  21.1501265 104.7633076  74.1932297
  21.1465693 104.4711208  75.6783581 111.5840034  77.9978561  39.5803595
 111.6787058  78.3413172  40.4687834 110.8836944  78.5235167  39.1937375
 100.1777039  67.9037905  42.3149633 100.3250895  67.8317738  41.3719225
 100.9846292  68.2907391  42.6546335 111.7697951  64.4336510  28.0857277
 111.9222856  64.5082712  29.0277529 112.0219469  63.5351658  27.8727078
  22.4553847  65.1634312  66.9376898  22.7887273  64.2666197  66.9667864
  21.5144157  65.0742197  67.0888519  24.7262812  98.8618374  32.6743460
  24.9659705  98.6900043  31.7637110  24.7552896  98.0029106  33.0958152
  10.3866529  79.5865393  72.2153759  10.6624389  78.6756516  72.1130848
  10.9555733  79.9333000  72.9026318  24.9238968  64.3622541  53.5327721
  25.7152867  64.2559290  54.0606260  24.5231962  65.1670694  53.8613129
   0.2082510 100.8993721  50.2395725  -0.6219198 100.8109951  49.7713470
   0.8695292 100.6083202  49.6116972  99.1281866  86.3465691  39.0483022
  98.1863044  86.3780022  39.2159438  99.3755625  87.2591972  38.8994741
  25.5649996  50.6114435  34.0887022  25.2486873  49.7144794  33.9808440
  24.9602032  51.0046673  34.7178531  18.3293593  98.2899666  35.1812220
  19.2430103  98.1638336  35.4372787  18.3152175  99.1491699  34.7595692
  98.2811902  84.7131252  27.1190405  99.1268860  85.1438141  27.2437072
  98.1604253  84.1887856  27.9106951  36.6557026  73.3970976  47.1327448
  37.3689890  73.5144281  47.7601862  36.7690015  72.5047684  46.8054152
  49.3830121   7.5357150  23.1598091  48.8550878   8.1422138  22.6404905
  50.2560366   7.9280376  23.1719565 100.6858049  80.4391098  72.8281927
 100.6556092  79.6787739  72.2474957  99.9177526  80.9563446  72.5856972
 108.7877808  68.2041883  27.8304911 108.9382936  69.1405630  27.9600048
 107.8601108  68.1398582  27.6035047 100.6086360  98.5661125  75.2656412
 100.8882819  97.7016544  74.9644089 100.8837245  99.1628456  74.5696068
  29.8409390  94.2006493  56.1112022  30.5853605  93.7938595  56.5545893
  29.6523428  93.6176109  55.3758621   5.5403233  51.8501139  23.3732653
   4.6522743  51.8697023  23.0165911   6.0783917  52.2651863  22.6991558
  98.8618015  62.7077389  24.9416900  99.3497466  62.1740055  25.5688024
  98.3205245  62.0799732  24.4629812  88.5873793  76.4342594  41.3553190
  87.8641961  77.0250893  41.1451721  89.3485855  76.8254948  40.9266758
  31.7822170  63.2293606  57.0685434  31.2299347  63.8041162  56.5385723
  31.4203572  63.2974625  57.9520893   5.8132064  85.6280804  60.5708218
   5.2947295  84.8277855  60.6541109   5.6531465  85.9250164  59.6750307
  71.4336444   1.7704105  83.0191040  72.0329667   1.2740707  82.4617100
  71.2215186   2.5509643  82.5072670  72.8124071  11.7725658  32.1882272
  71.9310332  12.1062374  32.3557806  73.1908394  11.6480445  33.0585814
  29.8537064  64.7258520  65.5739117  29.7839546  65.6644678  65.3996420
  30.5711341  64.4307947  65.0131321  55.0911117   7.7473163  62.7305222
  55.4063786   7.8456973  63.6289454  55.6078447   8.3749675  62.2252798
  24.6001410  74.6692467  43.0220461  25.3980255  74.5100498  42.5177956
  24.8253369  74.4089365  43.9152193  29.0404224  64.7889757  38.1787896
  28.5740495  65.2924824  38.8460326  28.5609674  63.9623356  38.1238651
   9.7931355  80.3425026  57.2002363   8.9929593  80.8380508  57.3745346
   9.6693087  79.5158577  57.6666641  19.6566355  89.6816158  12.2304988
  20.0893354  89.5614433  11.3851810  18.7217283  89.6464443  12.0281529
  19.5178497  93.6029434  26.4675784  19.1383159  93.7823868  27.3278022
  19.3643975  94.4038105  25.9662938  33.3725643  90.2416039  33.2740951
  33.7329769  89.6266079  32.6352525  34.1366076  90.5694008  33.7484527
  37.5657892  69.6655130  17.1262193  38.2241774  70.2369022  17.5215340
  37.1003008  70.2285528  16.5077186  79.3499900   8.1394290   6.2443703
  80.0278807   8.4835338   5.6627482  79.7864247   8.0443382   7.0909607
  13.7956202  49.6829557  13.9611137  14.3499017  48.9093971  14.0641272
  13.4897506  49.6395159  13.0551398  23.4787202  55.1388693  35.0017405
  23.4818482  55.4579067  35.9042025  23.6517739  55.9171009  34.4719815
  45.4602707   1.3933181  19.5412362  45.6724376   2.2633838  19.2032766
  46.2029035   1.1660671  20.1007771  14.9603355  76.6646290  16.6643739
  15.8595109  76.7019892  16.3383090  14.8901153  75.8028841  17.0751035
  33.3265996  76.7986393  50.2384949  34.2182684  76.4512539  50.2605200
  33.4066200  77.6861525  50.5879927 109.6746327  61.6925859  53.7482643
 109.6308659  60.7681370  53.9926100 109.5443691  62.1642065  54.5709658
  90.9189485  68.3601284  60.0590467  90.7668708  67.5220394  59.6223497
  91.8694209  68.4076262  60.1618910 109.1186281  91.4479542  39.4990087
 108.5535426  91.6287518  38.7478638 110.0077675  91.5060711  39.1493177
  96.3954888  17.3952305   9.0823513  96.3245140  17.0591700   8.1888986
  95.8562671  18.1860960   9.0843135  43.0988940 102.3106258  90.9799527
  43.1910953 103.2238501  91.2515197  43.9906010 101.9632834  91.0010329
  11.4679575  59.5600748  71.4069271  11.0957170  59.4008732  72.2742891
  12.1907759  60.1675272  71.5643072  44.8461808  12.5787830  48.4907389
  45.7126177  12.2484397  48.7282085  44.3817271  12.6538371  49.3243361
  14.5914578  58.3019638  16.5706539  14.9439597  58.4053755  15.6867528
  15.1153135  57.6000547  16.9568229  20.8139753  79.8090935  25.7889032
  20.5028439  80.1080990  24.9344897  21.3174820  79.0179586  25.5970144
   8.9713371  64.0573454  12.3490798   8.5873705  63.1922007  12.2065091
   8.4407306  64.6462536  11.8125391  31.7252278  69.6063852  46.2286615
  32.3833013  69.2162418  46.8039513  30.9094191  69.5518541  46.7263699
  17.3151875  74.1146231  74.1298771  17.9216993  73.4884739  74.5252419
  17.8679121  74.6672583  73.5773134 102.6188837  74.4683075  66.8475103
 103.5700308  74.4451809  66.9524717 102.3061059  74.9610567  67.6061916
  24.3393898  86.3671017  39.7922373  25.2456594  86.5196323  39.5245767
  23.8997769  86.0748768  38.9937544   9.7756714  77.0553827  68.7047577
   9.1236413  77.5956821  68.2584810  10.1034904  76.4657736  68.0256939
  66.1120559   4.4183826  47.2341728  66.8533135   3.9445590  46.8570042
  66.0329653   4.0712356  48.1226921  36.3578939  77.2864962  40.1958799
  36.8820810  77.8063631  39.5866179  36.9804525  76.6705608  40.5822468
   3.0370960  77.8930569  36.7577291   2.3435247  77.7807426  37.4077892
   3.6151353  78.5555029  37.1362376  26.0509826   4.3558883  32.1583200
  26.2064994   3.4156608  32.0688081  25.0976337   4.4413852  32.1651173
  20.2200675  86.2304878  48.1336737  19.4170249  85.7142448  48.0640650
  20.4417181  86.2042904  49.0644884   8.3811206  57.2581053  43.5768557
   8.2944965  56.9677019  42.6688910   7.4809468  57.3132324  43.8976049
  48.3742714  86.9141197  35.1111817  47.8864574  86.6375923  35.8869410
  48.0274391  87.7826309  34.9071527  39.4384885  91.1277199  11.7763758
  39.7951055  90.5138111  12.4183869  38.5017371  90.9323406  11.7527890
 113.0606595  65.9763193  63.7372494 113.1590344  65.0245857  63.7648773
 112.5868250  66.1445856  62.9227591   5.2674776  90.1253414  28.3357978
   5.2006221  91.0692596  28.4799743   4.7951993  89.7365570  29.0720272
 108.5034762  76.2455034  66.0384750 107.7643685  76.7286062  66.4080191
 109.1260229  76.1702013  66.7616606  25.8386159 102.2559452  57.4152756
  25.9090567 101.3078117  57.5262785  24.9279881 102.3999500  57.1578836
  52.9486121   4.7319888  42.9873657  53.7544669   5.0879669  42.6130581
  52.2474540   5.1468563  42.4848843  83.6398481  94.5478153  84.7332859
  84.4873761  94.9407768  84.9418640  83.8531755  93.8018894  84.1726494
  78.3655690  31.4915872  65.9782600  78.5522555  30.6124449  66.3076353
  77.4349974  31.4711094  65.7549953  17.1649516  85.7313156  50.8625269
  16.7272580  86.5462589  50.6165361  17.0925236  85.1766396  50.0857925
  22.4358559  91.6818142  30.5262613  22.5242877  92.0239544  29.6366835
  23.0324364  90.9338379  30.5556011 103.9224026  35.1808660  90.8727615
 104.2712495  34.5136754  90.2816670 103.9028523  34.7549932  91.7297808
  71.1460114   2.7195835  43.8656616  71.4800955   2.8355312  44.7551394
  70.2896953   3.1472301  43.8737965  70.8326555   2.2985076  72.7361393
  70.4499007   2.5728321  71.9027901  70.5543733   2.9691696  73.3598375
  62.2314287  13.1277275  59.2169142  62.4972010  13.1210136  58.2973766
  62.5581075  12.2987747  59.5667028  12.5760841 100.5534935  36.8300676
  12.4841166  99.6157646  36.9987178  13.0739665 100.6023884  36.0140085
   9.2144543  55.0883389  53.8090181   9.7334588  55.7272196  54.2975855
   8.9625341  55.5470467  53.0075502  19.0517056  87.8455544  52.5492954
  18.2222664  88.2066917  52.2364950  19.0979886  88.1122589  53.4674215
  78.2334454  30.7725255  84.4977075  78.0646054  31.3560789  85.2374328
  79.1775791  30.8358114  84.3533528  81.3848780 101.8825150  30.2173305
  82.0646404 101.5360737  30.7953715  81.2755822 101.2092686  29.5457411
  39.6287751  85.1766205  70.4317188  39.9801111  85.1826668  71.3220882
  40.0365353  85.9320068  70.0082064  21.4184952  86.5858269  17.2501576
  21.0479951  85.9193707  16.6715384  21.5752339  87.3381519  16.6794837
  22.6641679  73.8288116  51.7173910  23.4403181  73.8355637  51.1572313
  22.8520250  74.4784784  52.3947906  17.8207695  65.5758810  19.6384931
  18.5249329  65.0982046  19.2000747  17.0302474  65.3327513  19.1566277
  15.8051634  68.3565521   1.2888007  15.7457387  69.2304611   0.9028132
  14.9061251  68.0281639   1.2776799  20.3491545  78.2175922  35.4720545
  20.2269435  78.1662321  36.4200306  21.1398625  78.7454367  35.3607440
  94.3188475  84.5098591  47.0634127  93.8620506  84.7218704  47.8774309
  93.7646435  83.8530922  46.6418219  15.7394147 103.8569736  33.1006384
  15.0895417 103.5186100  32.4846745  15.2253723 104.1575336  33.8500738
  33.1493187  86.8921947  80.6480694  32.2806454  86.6041470  80.9285355
  33.2736540  86.4805222  79.7929144  18.9749300  88.4952927  43.8207674
  18.5031629  88.1628799  44.5844221  19.8874998  88.5439873  44.1055059
  23.6345863  83.9746857  35.2063203  24.5061088  83.6892414  34.9320912
  23.1828904  84.1841316  34.3888021  38.0267040  17.6123428  67.0877457
  37.7137543  18.3307170  67.6375055  37.8277316  17.8906631  66.1937761
  89.5307969  72.2688198  84.6523380  89.8724459  72.4760485  83.7825298
  89.1577886  73.0927706  84.9657059  21.6237354 100.4077435  24.8292184
  21.6262937 100.4409599  23.8725972  22.1790838  99.6583843  25.0443411
  39.9981642  84.6375275  26.2372541  40.8821726  84.3747139  25.9809518
  39.4226956  84.0405464  25.7590437  48.7134266  72.0034981  29.3029380
  48.0967379  71.3381672  29.6083260  49.0344524  71.6665888  28.4664774
  69.5558763  30.7434654  73.0011415  68.6370111  30.8436870  72.7523899
  69.9676562  30.3377151  72.2382355  15.2009773  89.1220951  32.6542735
  15.6423616  89.8595428  32.2328639  15.3834307  89.2350674  33.5871077
   9.2314970  99.9897766  31.9579792   8.3650422 100.3370380  31.7460942
   9.1652083  99.0525627  31.7750311  45.6747205   6.6890430  22.1294594
  44.7517652   6.5790367  22.3581171  45.7230444   7.5631618  21.7424035
  93.1622504  99.4300365  39.8698092  94.0751384  99.7133064  39.9210954
  92.7084111 100.1596642  39.4480133  97.9169689  91.1690331  53.5954666
  98.6986218  90.8258820  54.0284777  97.2062503  90.6065273  53.9031982
  29.1058493  64.7470570  32.0661974  29.2925692  64.1683340  31.3269782
  29.7621226  65.4406261  31.9991207  14.9482572  67.9987764  61.5461588
  14.8731947  68.3250284  60.6494093  15.8851457  67.8444862  61.6672611
  80.8530067  75.9975386  59.1222429  81.4675949  76.6647387  59.4277859
  80.6220125  75.5058050  59.9103212  38.7978703  32.2209548  66.7336321
  39.5307002  31.6484641  66.5068007  38.6412139  32.7347946  65.9413767
  30.7841587  98.0625057  29.7948289  30.4353929  97.2517967  29.4242263
  30.4327345  98.0896568  30.6847715  23.6430073  91.4176559  50.2762794
  23.6041141  91.8404865  51.1341476  22.9303622  90.7787991  50.2916050
  66.4784647   8.1287097  53.4777260  66.3162471   7.4992465  52.7750921
  67.4020911   8.3612346  53.3824587 111.3348021  78.8499022  74.0043259
 111.7699905  78.5483551  73.2068872 110.5155106  79.2385054  73.6977625
  94.4753705  92.2289467  58.3678007  93.7998210  92.8870964  58.5312080
  95.3004239  92.7076149  58.4477711  58.7021304  23.7201213  37.4762869
  58.8237358  24.1670703  38.3139467  58.6294342  24.4276046  36.8356514
  18.5636353  63.0531120  29.5712328  18.7533867  62.1814871  29.9183464
  17.6990855  62.9678822  29.1693354  90.7054711  29.8808288   7.1409291
  91.5947629  29.5903873   6.9383687  90.3868724  29.2467021   7.7832747
  28.0396819 103.3758068  56.9040298  28.2426167 104.1385078  57.4456358
  27.1866536 103.0778503  57.2199392  38.6599405  25.4872608  46.0983801
  39.5622421  25.7888984  45.9930229  38.7378107  24.6606063  46.5746307
   5.4911852  82.2901249  31.1745811   4.6288860  81.9307709  30.9659171
   6.0264599  81.5238667  31.3808870  28.5926151  59.8213434  17.9142976
  27.7288818  59.4517899  18.0976772  28.4235859  60.5269957  17.2900271
  65.8562733  28.6336898  53.0757523  65.8695174  29.5443153  53.3704138
  66.7780066  28.4104919  52.9460430  63.3348013   6.2437248  65.1538706
  62.6663161   5.8791446  64.5738411  62.9986573   7.1072673  65.3937435
  33.8584924  75.7210159  66.0673857  32.9158902  75.6966162  65.9026575
  34.1318393  76.5876484  65.7666063  90.4153205  12.3614692  31.8067598
  90.7253075  11.9442176  31.0029912  89.9170972  13.1212139  31.5054488
  65.6095959  16.2518119  42.1484995  65.0818158  16.8820667  41.6581392
  65.8627463  16.7193317  42.9444695 110.9116211  53.7015057  24.3888474
 111.4497545  52.9287577  24.2170787 110.7811211  54.0987110  23.5277820
  45.5278254  96.9337273  19.4521725  45.9532690  96.8417549  18.5996628
  44.7192526  97.4110222  19.2660880   7.3499227  96.8232155  43.6355019
   7.6722968  96.5060997  42.7918530   6.8801880  96.0771084  44.0082026
  26.4456892  74.5177317  41.0817814  27.3165035  74.8486280  40.8617401
  25.8785892  74.8567200  40.3891659  32.8335738 105.0393963  65.6771755
  32.5990033 105.0645161  64.7495031  32.6025391 104.1542053  65.9587526
  23.0065203 104.8613930  46.7220402  22.7545190 105.2338696  45.8770609
  22.2326875 104.3776989  47.0109272  19.0255260  99.8352432  24.8606730
  18.6190474 100.7004261  24.8109031  19.9534428 100.0149250  25.0120640
   4.3271574  85.5327511  19.1725826   5.2794713  85.6292820  19.1690922
   4.0828648  85.6011677  20.0955510  47.0283413  97.3091698  17.0732808
  46.2686729  97.8844833  17.1635580  46.9977045  97.0129681  16.1635792
  99.0233587  98.6641884  28.1475711  99.8775409  98.5102272  27.7439594
  98.3927809  98.4795666  27.4514985  41.1572409  43.3464098  52.3545218
  41.3122988  44.2536974  52.6172447  40.7985449  43.4113169  51.4694452
   4.9054107  94.3504429  10.0290871   5.1536357  93.4714317  10.3153682
   4.6216318  94.7918510  10.8296275  39.6256852  81.8397808  67.9719877
  39.0369153  82.5927830  67.9213572  39.2072010  81.1716175  67.4291658
  64.7629452  84.1129780  44.0358353  64.6294880  84.0209484  44.9792099
  64.9638414  83.2268429  43.7347841 103.3841889  84.5435333  37.0154858
 102.7690576  84.7731876  37.7119803 102.9042195  84.7161484  36.2055063
  20.1534176  89.0860653  20.1821661  21.0599804  89.0139103  20.4807782
  20.1092553  89.9416447  19.7552335  48.9231420  28.4543704  41.4437580
  49.1253877  28.0426502  40.6036282  48.4616590  27.7766609  41.9376802
  13.6857820  76.1047983  42.9756260  13.2656825  76.3300467  43.8056898
  13.1906319  75.3517485  42.6531744  31.1524677  93.7674999  22.5794291
  30.8332753  93.5342503  23.4511757  30.3724813  93.7457085  22.0250130
  59.1002012   9.0284633  20.1814127  58.7648536   8.7633991  19.3249583
  58.4004737   9.5621967  20.5578923  38.3800030  95.6383991  59.7698736
  38.3626676  96.5915203  59.6833372  37.7013564  95.4442120  60.4163742
  49.3497587  41.9644164  54.4079494  48.6369170  41.4263343  54.0636349
  49.7417808  42.3670005  53.6330414  37.3886013  87.8899193  49.3255234
  38.2866549  87.5923157  49.4709921  37.4713707  88.5976028  48.6863327
  22.1478939  75.5106449  91.7276764  22.3580718  74.7178602  91.2341690
  22.9607964  75.7327366  92.1816540  11.3647115  98.7922001  64.0819931
  11.0120153  98.9367771  63.2039642  11.6898668  97.8920937  64.0642786
  96.9128896   9.5717620  51.1923456  96.4735175  10.4123973  51.3208246
  96.2161065   8.9213943  51.2803984   1.5725772 103.5054207  38.8138318
   1.7242719 103.2948971  37.8924751   2.4159789 103.3467579  39.2377758
   9.1350174 100.2840233  54.2434168   8.8535208 100.4990196  53.3541632
   8.3199406 100.1878262  54.7359896  72.8984834   9.5062827  25.1188970
  72.6315785   8.5966586  24.9862647  73.0229259   9.5838832  26.0647941
  70.5513216   5.0250625  63.5297203  69.9159432   4.3129444  63.6033773
  70.7361866   5.0851154  62.5924635  54.7611929  29.1845703  36.6676402
  54.3432213  28.8182067  35.8883381  55.5567540  28.6642360  36.7797518
  15.3700650 103.0901432  37.3623657  15.8122826 102.6174164  36.6572380
  14.5373809 103.3667850  36.9798231  29.0600491   4.7413444  21.1136580
  28.6217142   5.5752372  21.2831163  29.9761397   4.9019718  21.3399529
  34.9112344  98.3049011  42.2129107  34.7763610  98.0080891  41.3129425
  35.7241225  97.8796577  42.4860764  84.8109458 100.6005287  67.6125956
  84.4183110 100.8668709  66.7812538  84.7233103 101.3693333  68.1760645
  25.6532121  84.7387695  16.3559449  25.4076433  84.4275951  17.2272098
  25.8542323  85.6662655  16.4807177 113.2609551  65.8340931   5.1969266
 113.6783535  66.1389732   6.0025686 112.5203750  65.3063822   5.4957503
  45.0825531   4.5618915  54.3639088  45.6158323   4.8468398  53.6218500
  45.6771422   4.0349960  54.8978376  30.0779915  91.9559002  83.9201355
  30.5028033  91.4101505  83.2583809  30.7143450  92.6464844  84.1055679
  73.0937649   8.1989669  13.0471325  72.7242947   8.7401294  12.3493695
  74.0410472   8.2936954  12.9475677  97.0948730 100.0583458  37.0698690
  97.2837137 100.9699535  36.8472838  97.7901660  99.8117447  37.6797748
  19.8027229  95.4654789  45.2285910  20.1706290  95.7422447  46.0678053
  20.4756665  94.9023914  44.8460913  68.4216858   4.2515468  30.1394486
  68.6154700   4.2852592  29.2026758  68.7798644   3.4121227  30.4280686
  14.3479955  96.7153454  56.7540693  14.3892896  96.7784786  57.7082920
  13.8627613  95.9070778  56.5882874  45.5078686   9.6078109  46.0813522
  45.0346888  10.0786304  45.3952980  45.7163287   8.7596511  45.6896877
  13.6206400 103.2144928  55.3859711  13.8855994 102.7549362  54.5892048
  12.9206192 103.8022900  55.1018953  29.5201302  89.7218704  38.0247188
  30.3519154  90.0834942  38.3306527  29.5614100  89.7993279  37.0715523
  18.3984554 102.2264862  44.8398161  18.8457048 101.7979431  44.1100550
  17.7171099 102.7559376  44.4254827  14.2569137   0.2056407  32.0780325
  13.7319828  -0.5273915  31.7565799  13.7111927   0.9767818  31.9238877
  25.0775623  82.3077679  46.6040707  24.7056413  82.8855801  45.9377050
  24.6418405  82.5668907  47.4160004 109.7763906  98.0475616  78.9586878
 109.2365463  97.6342010  79.6324348 109.2657895  98.8056374  78.6743927
  90.8990191  65.8473444  45.6871462  91.3715051  66.6095257  46.0219049
  91.1812399  65.7719564  44.7756100  23.5501361  95.6975269  70.4698372
  23.3852506  95.3551006  71.3483524  23.5675478  96.6479111  70.5825758
  37.3708874  12.6731014  44.6946716  38.2901235  12.4502181  44.5478439
  37.3218365  12.8853893  45.6267452 104.9761854 102.0141506  10.2858996
 105.7191203 101.4113712  10.3164804 104.5999126 101.9753361  11.1651862
  75.4431582  10.3982353  49.6350479  75.9647418   9.6747779  49.9826097
  75.9066177  10.6684112  48.8423061  36.3385153  97.6274300  72.5987768
  35.6438303  98.2270813  72.8709269  36.5246058  97.8721046  71.6922760
  21.9322968  90.2014065  86.9232082  21.5351462  89.8792076  86.1140823
  22.6909924  89.6340656  87.0600796  23.8278294  94.3279362  46.5170765
  23.3835888  93.6863708  45.9627438  23.6692572  95.1676655  46.0858631
  19.6304882  47.9055595  20.4907608  20.3036165  47.2294855  20.4129672
  19.7097385  48.4162760  19.6850812  33.4873223  86.7630959  33.8640070
  34.2517591  87.3227406  34.0006256  33.4067941  86.2648869  34.6773529
 111.3980460 103.9146900  47.7373314 112.2723836 103.5912418  47.9544687
 111.1457409 103.4186459  46.9585371  59.3800831  88.1291580  31.7574120
  60.0764322  87.4744129  31.8086958  59.1746950  88.3323479  32.6699710
  69.0182901  21.6128063  23.4624720  69.0163852  22.1900939  24.2259932
  69.4718743  20.8240413  23.7597084  32.1972919  92.9891300  77.7728748
  32.3391008  93.9353275  77.8018570  31.2909675  92.8739262  78.0584145
 109.7725518  78.0530167  36.0606360 110.4125632  78.6975622  35.7586837
 108.9480908  78.3281136  35.6596184  18.3653617  76.7594957  60.9935141
  18.2654130  77.5658131  60.4874563  17.6841664  76.1783600  60.6551504
  76.5571619   2.1762657  60.7327318  77.5092865   2.0998668  60.7948256
  76.3275267   1.6778373  59.9484730 110.1167257 104.4749165  67.7989292
 110.6415363 103.9743805  67.1742153 110.1864605 105.3810596  67.4984694
  96.2285827  81.1994839  54.0250444  96.3379668  80.9605026  54.9454546
  95.9058176  82.1003246  54.0482187  19.1157901  87.7676868  62.8863955
  18.4160662  87.1148872  62.8646708  19.1712999  88.0287933  63.8056183
   4.6935356  72.4164057  71.9279194   3.8733351  72.5925541  71.4669704
   4.6810171  71.4725780  72.0868826  21.2374091  78.0222416  31.5808535
  21.3774204  77.4564123  30.8216023  22.0978856  78.4020948  31.7584038
  28.1838441 105.2740669  50.2002573  28.3524227 104.9031162  49.3341112
  28.8682485 105.9331989  50.3158665  13.3807695  69.2299414  11.5044868
  13.6579847  68.3527994  11.7690611  13.2840896  69.7090101  12.3275173
  83.1441165  19.0585803  28.7943745  82.6897479  18.2642173  28.5137033
  83.4849692  19.4383621  27.9845500 111.4555342  91.2292099   4.9435091
 111.0395403  91.9130325   4.4185612 111.0124816  90.4225159   4.6804965
  44.0328503  89.9875927  71.6022682  44.3455029  90.8793259  71.7549086
  44.6703196  89.4305229  72.0489740  11.5083575  81.0104179  41.4519453
  11.1246741  81.3624382  42.2551250  11.2910235  80.0784111  41.4711714
  44.3031025  99.0027046  79.1733313  43.7633944  98.6299801  79.8704863
  43.8806248  98.7154865  78.3638573  32.8314590  98.3602715  16.0395932
  32.1892214  97.8197479  15.5796027  32.3791885  99.1894245  16.1951268
   8.3784771 106.3337994  40.0383329   7.9514802 106.5527534  39.2101026
   9.3146724 106.3722992  39.8426580   4.8427621 100.1375389  26.4477372
   5.7882756 100.2245522  26.3266349   4.5886314  99.4336128  25.8509588
  84.8185561  66.7177122  89.9335912  84.9579517  67.0928686  90.8031066
  85.5494068  67.0472066  89.4105977  32.3116612  95.5875587  58.1453037
  32.7192783  94.8462582  57.6974773  31.4444780  95.2688122  58.3955622
  38.7827873  58.3765030   9.2650235  39.4600844  59.0528107   9.2546082
  38.3786225  58.4555769  10.1291013   2.4915750  91.1314964  62.0590830
   1.6589117  90.8914661  62.4656343   2.7076066  90.3867435  61.4979124
   5.4070228  59.5252609  34.6663666   6.3105810  59.2269135  34.5624304
   5.4823005  60.3616333  35.1257586   9.5015281  82.1520138  82.2485638
   9.5726550  82.9990482  81.8084335  10.3795218  81.9859505  82.5917530
  60.4193140  13.4631442  54.0705395  61.3391734  13.3995532  53.8135433
  60.3713632  14.2638301  54.5928764  45.6236076  87.5576401  61.2588930
  45.9972811  88.1330967  61.9263124  45.5910921  88.0968380  60.4686832
   5.1487184  91.3095284  48.5462332   4.2383313  91.4807510  48.3051682
   5.5235410  90.8805084  47.7770233   6.6336924  52.5429058   8.1296128
   6.6954476  52.0480490   7.3125857   7.3499179  52.2064209   8.6681563
  22.7051258  82.0040321  70.7730103  22.0248818  82.6691246  70.8785820
  22.4120736  81.4776707  70.0291729  59.9622012  19.3814468  15.1182616
  59.7331811  18.6509227  15.6928194  60.8430386  19.6356105  15.3934991
  90.3214835  70.2418804  48.2777071  89.9008892  70.2791166  49.1367483
  90.8857559  69.4698763  48.3205605  76.2528730  20.9329223  34.9072766
  76.6990853  20.1374053  35.1975942  75.5715586  21.0785007  35.5636668
  99.5791565  98.2356167  43.3928537  99.4586299  97.4127769  42.9188919
 100.2268647  98.0309105  44.0672445  42.9803276  76.1674118  48.9814758
  42.9271126  77.1218300  48.9316034  43.8425016  75.9565496  48.6231089
   5.6704092  81.6410446  10.8679104   5.2730483  81.0668564  11.5226197
   6.0048395  81.0448742  10.1978624   8.1083286  74.8728704  55.4104185
   8.7788457  75.5270481  55.2137232   7.3845446  75.3763342  55.7831049
 107.2884510 102.2681713  47.2200108 107.9932849 101.9699955  47.7949286
 107.1192269 103.1689930  47.4959040  81.9290734   8.9929962  14.2542803
  82.4166537   9.8130226  14.1764915  81.0852576   9.1759490  13.8410783
   9.6503770  98.1894970  24.8606157  10.5126727  98.0781651  25.2609706
   9.7925484  98.8240433  24.1582131  27.5256610  74.2138958  51.2151670
  27.9978728  73.7189722  50.5456161  27.9997516  75.0429821  51.2790823
   9.0580374 100.6247902  34.8743939   8.4287494 100.3383636  35.5363536
   8.7606800 100.2086258  34.0653086   3.0850449  82.8138542  76.5677452
   3.8977063  83.2869053  76.3887453   3.3311802  81.8898773  76.5241480
  30.3366780  57.6896048  16.7088091  29.5533657  57.9780340  17.1772754
  30.8520699  58.4874058  16.5899968 109.6800508  70.8891964  33.4699297
 109.2866309  70.0168800  33.4926033 109.7078668  71.1153030  32.5402355
  16.2282979  98.8725471  47.1966839  16.5046251  98.1518745  47.7628136
  16.9349802  99.5146370  47.2641659  65.7608319   9.6941947  61.3098621
  66.3663317  10.1268482  60.7078600  64.9093080  10.0859451  61.1157799
  23.7237310  59.6251202  66.8501377  23.9253974  59.3744087  67.7516413
  23.8540602  60.5732012  66.8303442  49.3096638 106.3707829  45.8874655
  49.1651487 107.2208500  45.4718447  48.5375404 106.2387943  46.4375877
  11.6672862 105.2009010  49.3140173  11.9793713 104.5761299  48.6594200
  11.1041629 104.6834373  49.8896551  42.4845123  79.9401283  46.3554668
  41.7405367  79.4288635  46.0371399  42.4685001  80.7395172  45.8292103
  39.8774934  94.4207382   8.6136591  39.5450616  93.6928558   9.1389352
  40.1250267  94.0209770   7.7799028  53.0344666   3.1127834  82.0918655
  53.3922625   2.2358989  82.2307396  52.5239933   3.2910346  82.8817177
  14.2366195  94.9978828  44.8762226  15.1291144  94.8171234  45.1711988
  14.3044209  95.0447464  43.9225817 105.0214778 102.2061539  51.4435005
 105.5642240 101.5842342  51.9281340 105.6376182 102.8682423  51.1300707
  62.2354008   8.6575031  65.0370836  63.0376149   9.1762638  65.0968313
  61.6419674   9.0602397  65.6710196   7.4768639  90.8921051  31.6413975
   7.9756796  91.0786152  32.4367762   6.5741146  91.1169815  31.8665767
  33.5346508  92.9543018  47.5802660  33.5743356  93.8595200  47.2716665
  32.6699471  92.8763390  47.9833031  22.4832369   1.5786456  38.2389498
  22.6777757   0.7500457  37.8009892  23.1714130   1.6684627  38.8981748
  65.5216337  30.0584697  59.0707874  65.7492281  30.9860610  59.0074635
  66.2597037  29.6026039  58.6662292  29.1335726  93.6804771  29.4150567
  29.1093063  94.5310307  28.9766550  28.7811375  93.8510799  30.2885056
  56.1340988  38.0022525  23.2003999  55.9456147  37.4562644  23.9636850
  57.0740617  38.1745338  23.2553864  48.2039667  26.1270236  34.2751765
  47.7717973  25.3557395  34.6420336  47.4879111  26.6643524  33.9363933
   7.7868485  99.7779846  59.4765663   8.7293857  99.9276829  59.5503664
   7.5782055 100.0067139  58.5708141  24.8652124  77.2096014  45.3147268
  24.4796395  77.4496889  44.4721556  24.1444635  76.8121719  45.8034039
  34.7438192  99.1680145  29.2530489  34.6344256 100.0907135  29.0230632
  35.5752230  99.1360760  29.7263145   7.2731096  86.4191723  40.9705448
   6.8000591  85.7885933  40.4275703   7.0997077  86.1389923  41.8692446
  20.1370525  68.8268471  65.7624292  19.4828451  69.1976357  65.1701784
  20.2228618  67.9150867  65.4839277  32.0007820  28.7054061  63.9341497
  31.4402957  27.9354286  64.0301895  31.8900836  28.9698219  63.0208826
   3.9695090 106.1860180  22.6780462   3.9027888 105.6410313  21.8939734
   4.9074095 106.2215042  22.8659701   5.1776296 105.4542542  42.3476601
   4.4712162 105.8310127  42.8723240   5.1169568 104.5121193  42.5055361
  14.7758162  86.1731911  53.1081343  14.2240644  85.9395695  52.3616600
  15.5147505  85.5667400  53.0588770  22.4272060  22.3564308  88.9612794
  22.1775626  22.9179065  88.2273484  23.0887603  22.8609531  89.4346035
  41.9972944  94.2405224  60.8089495  42.1625042  94.0657711  61.7354488
  42.4132013  95.0873089  60.6470585  11.8364155 101.0099030  15.3286958
  12.2321570 100.9788895  14.4576859  12.3084164 101.7087841  15.7814765
  25.1891756  80.3931427  14.5074868  24.9377370  80.8844948  13.7254512
  24.4497132  79.8075962  14.6704984  72.7488209  10.6627178  90.5021286
  72.4913836   9.8863124  90.9992695  73.1397796  11.2452983  91.1532688
  20.3189659 103.5802746  51.1191463  20.4776049 103.8236904  52.0311880
  19.4863260 103.1085014  51.1385202  79.6566439   7.0181178  24.6868372
  79.0141250   7.4186706  25.2724648  80.3313876   7.6881599  24.5773482
   7.4637097  80.9183502  66.6757870   6.6244066  80.9623146  67.1338987
   7.8463387  81.7878914  66.7928982  15.5935168 105.6310749  62.9927349
  14.7671235 105.7214737  63.4672213  16.2678635 105.7757092  63.6564875
  44.0272760 101.3295364  44.2775393  44.0459490 101.8700409  43.4877682
  44.3391085 100.4720116  43.9883280  97.9085658  94.8013115  39.6272969
  97.2180949  95.4575253  39.5331740  98.2711576  94.7071171  38.7464523
  16.7939901  76.9092321  37.1430540  16.9870961  77.8456450  37.1885633
  17.0232308  76.5749836  38.0102086   5.5726326  53.2832241  90.6998348
   4.8218411  53.7779140  90.3714752   5.6203431  53.5088491  91.6288471
  14.0319788 106.5423775  18.8210261  13.6144257 105.8017063  18.3813715
  13.3157921 106.9857979  19.2756498  33.8501787  76.5321016  44.9044895
  34.4761753  75.8121490  44.9821043  33.0467010  76.1179733  44.5896006
  28.8398576 101.9386101  53.2307386  28.8554907 101.5683842  54.1133022
  29.7407198 101.8524647  52.9188776  85.8698703  31.7231750  34.6921825
  85.5359078  30.8261489  34.6849895  85.5027438  32.1217632  33.9031506
  67.9154206  19.6610641  46.1048889  68.7244035  19.1967296  45.8900213
  68.0916453  20.5715370  45.8677912  16.8708217 101.0591221  41.3444901
  16.1932886 100.9779835  40.6732273  16.5555739 100.5194283  42.0694542
  37.5007272  91.3888168  30.6148696  36.7343497  91.3967323  30.0414276
  38.2300901  91.1649513  30.0368214  98.1584454  10.1603794  54.6505404
  98.3072711   9.2692661  54.9667740  98.4044219  10.1306247  53.7259626
  56.0145140  78.4235001  56.4081573  56.5472412  78.0757523  55.6929588
  56.1178255  77.7866983  57.1152925  64.0495635   5.2626228  44.7329807
  64.2248345   5.8384513  45.4772472  63.1430460   5.4526328  44.4914198
  41.6683578 103.9199162  43.9628601  40.8792639 103.5346317  43.5819149
  41.9593000 104.5606518  43.3139849  58.4863472  91.5728855  42.2593355
  59.3354702  91.3755989  42.6546812  58.5311270  92.5055408  42.0486689
  66.2967516  13.8145351  41.1375332  66.8303634  13.8777637  40.3453875
  66.0716344  14.7208499  41.3476515  38.0977798  83.1598663  79.4419861
  38.2910824  84.0973473  79.4443274  37.7710390  82.9804897  80.3236294
  24.2298603 106.5089512  48.6736012  24.0022874 105.8397293  49.3190336
  23.6912727 106.2988949  47.9106903  52.2115946  79.6312332  56.0333872
  51.7422104  80.2431870  56.6003275  52.0631742  78.7736416  56.4318085
  21.3161302  90.3537178  39.0816379  22.1614838  89.9111462  39.1574240
  21.0092592  90.4401302  39.9841857  56.4474154  96.3322544  64.4942522
  56.2841511  96.5200806  63.5699701  56.5385771  95.3801823  64.5327187
  68.5789705  24.1319465  37.2871614  67.9221583  24.2364787  37.9755688
  68.6293007  23.1865978  37.1456957  41.0275383  25.3035068  34.5245409
  41.4788465  25.5719852  35.3248358  41.7300481  25.1565742  33.8911986
  70.1511622  14.3115711  29.4395161  70.1393724  14.9780845  28.7525988
  70.8281709  13.6941528  29.1625786  91.7248631   0.7456779  48.6269236
  91.0850001   0.0974559  48.3326149  91.3382817   1.1219501  49.4176245
  77.1476961  20.0489044  48.7200356  77.5783945  20.5727577  49.3955469
  77.8315354  19.4596862  48.4015703  44.1322231  99.5330334  54.4936800
  44.8370743 100.1026726  54.1855764  43.7477207 100.0056458  55.2319431
  38.1751800  95.2700329  53.8503313  39.1264868  95.3047943  53.9505053
  38.0308485  95.3433132  52.9069138  51.7098368   4.6603298  69.9945545
  50.8591271   4.9161243  70.3510571  52.2009314   5.4798126  69.9353600
   7.4470174 100.2864742  20.3130507   7.0606983 100.3436184  21.1869645
   8.2246047  99.7406960  20.4301405  18.9340067  84.4992065  52.8892756
  18.6388886  85.3999329  52.7557755  18.2771111  83.9635372  52.4445534
  81.2676240   6.1881542  68.4705162  81.6253472   5.7834529  69.2607546
  80.6767131   5.5273246  68.1094599  91.8157292   4.8878860  30.6694698
  91.9907857   3.9870071  30.9415197  91.2018634   5.2207755  31.3241267
  25.0346185   1.6943931  17.5291061  24.2537487   1.1632156  17.6850450
  25.3533662   1.9143962  18.4044528  28.8323355  94.1418076  32.2518325
  29.3595123  93.4034061  32.5569153  29.2578149  94.9118614  32.6289368
  72.7752638  95.8563042  43.7235689  72.9650593  96.2719154  42.8824568
  71.9873047  96.2999058  44.0375280  91.7911006   3.8835716  68.8157701
  91.9333983   3.2011699  69.4717455  90.9978629   3.6108589  68.3546448
  45.5006016  16.5590095  88.2674885  45.4820920  16.2160873  87.3740196
  44.8750729  17.2834873  88.2589817  81.3294364  35.1495551  85.3255653
  80.7468749  35.8724975  85.0927448  82.1807814  35.4037761  84.9694443
  40.3680086  89.5893002  61.3613224  40.6880283  90.1062679  60.6220245
  41.1584044  89.2206097  61.7557526  95.4197646  10.8492183  91.4812660
  96.1713315  11.4333915  91.3806534  95.3641082  10.3845596  90.6462574
  98.4225307 104.0353394  87.5231075  98.6071168 104.9702072  87.6135445
  97.4804209 103.9919472  87.3594666  82.9784585  28.4606265  11.0479319
  83.8655330  28.5789680  10.7083297  83.0861331  27.8816318  11.8025148
  54.5718110  33.3167266   2.0224163  54.7243107  32.3982524   2.2446321
  55.0771046  33.4564781   1.2215532  32.9680109  99.3775940  63.4587002
  32.3175025  98.6766720  63.4164762  33.3888841  99.2627525  64.3107033
  89.6543477  90.4686069  38.7549996  89.6463297  89.7263432  39.3593264
  89.2010592  91.1669350  39.2273355  30.9899163  96.9027233   6.6583526
  31.8734527  97.2546196   6.7668015  30.4722738  97.3431873   7.3323476
  49.1463078   0.6595039  13.3241260  48.4283579   0.6029891  12.6935816
  49.4902385  -0.2322674  13.3760405  90.1771260  32.4840640  49.7749758
  89.8556233  32.8440570  48.9483786  89.4361544  31.9895172  50.1251459
  49.8364401 102.8754902  41.4759874  49.9241924 103.8221931  41.5868473
  50.0022459 102.7269745  40.5450296  60.8007646   1.5614032  52.5077820
  60.6552244   2.2587299  51.8684196  60.1839209   1.7518615  53.2145071
   4.4074967  16.2625503  34.7329235   4.9936869  17.0129680  34.8303938
   4.8145010  15.5712795  35.2551436  24.3292737  89.7679234  26.8499207
  24.3434739  90.0438118  27.7663898  24.8541451  88.9676476  26.8325448
  21.6806459 106.1682892  44.6561909  21.8839049 106.3669968  43.7421751
  20.7504129 105.9427357  44.6511173  50.1846636  12.5796794  63.5201168
  50.2034999  13.3736038  64.0544939  50.0916601  12.8975772  62.6220512
  72.0039726  53.5523145  84.6067334  71.3914529  54.2490976  84.3710506
  72.4775106  53.3653753  83.7961471  46.9732618 103.1098843  77.2036457
  46.9474173 103.0558205  76.2483263  46.1406898 102.7324200  77.4875116
  50.4576159 102.4562263  60.3960609  51.2946224 102.7235985  60.7757473
  50.2211332 101.6610432  60.8735418 112.7394837  96.9460106  75.1576996
 112.8564085  97.7832317  75.6067133 111.7904167  96.8360424  75.0992918
  44.8820877  78.3375931  44.4679928  44.4946480  78.2606506  43.5960960
  45.7023525  78.8097095  44.3247747  16.8105912 105.5309391  70.5652618
  16.2122941 104.8253632  70.3194237  17.2710347 105.1971626  71.3352108
  13.9117014  74.6096373  48.4098530  13.1506467  74.2628527  48.8754368
  13.9268231  74.1275358  47.5830650  88.4925032  15.9756660  44.5164156
  88.9859200  15.1653861  44.6437454  89.0676404  16.5251636  43.9839649
   5.2110863  67.8914118  17.0998263   5.4835558  67.5089359  17.9339170
   4.7586143  67.1800327  16.6465688  82.7788497   7.4641609  35.7664013
  83.3826447   7.3114108  36.4932680  83.3412410   7.7350616  35.0407577
  88.1982423   6.7731475   9.1240847  88.2814742   7.0498752  10.0366223
  88.9522124   6.2020015   8.9772809  77.5427246  93.1690216  46.5224791
  76.6679478  93.5575199  46.5143347  77.8260136  93.1976223  45.6086063
   7.1456146  87.4860287  51.8954372   6.4367604  87.3018360  52.5117397
   6.9528115  88.3629894  51.5637827  32.7471304 104.4277382   1.7568710
  31.8645930 104.1571426   1.5036121  33.3126926 104.0718842   1.0714996
 100.2390576   8.5056686  36.5381145 100.6260634   9.3731689  36.4201641
 100.9562255   7.8972339  36.3600397  28.1066802  58.1877119   9.4844162
  28.6040452  58.5683901  10.2082646  27.6289752  58.9265425   9.1073811
 105.8689789  94.0042782   1.5409480 106.7525218  93.6712646   1.6980591
 105.9348874  94.4758224   0.7105660  26.3829851  98.7995434  39.4380879
  25.5182505  98.4340668  39.6248841  26.3667202  99.6693611  39.8373199
  20.9019184  76.3132334  55.2290869  20.1811767  75.7105589  55.0459337
  21.3812208  75.9018660  55.9483099  77.1196080  12.7876281  45.2724504
  77.8392554  12.5535297  44.6863317  76.9668151  11.9979667  45.7914019
  57.3010159  91.6045856  25.0285697  57.7029419  90.8026791  25.3626847
  57.6903343  92.3041916  25.5531812  53.0701149   6.1921501  27.7483678
  53.4685016   6.6808795  28.4685540  52.7934743   6.8651008  27.1263957
  52.0708942  86.4211845   7.4519050  52.5784397  85.6354237   7.2489160
  52.6248598  87.1457863   7.1615452  27.5281382  97.3995113  78.4507418
  27.3946428  97.2071171  77.5226259  26.7413306  97.8781223  78.7117147
  70.7471634   5.0290870  36.4094520  70.9655596   5.9573554  36.4922881
  70.1386119   4.8610782  37.1289444   3.0045965 105.2200699  57.6972294
   2.5631675 104.5236015  57.2111177   3.5989314 104.7592449  58.2893801
  13.2533288  99.8286629  59.7008419  13.3953321 100.3925705  58.9405251
  12.3793209 100.0630283  60.0129604  91.2374307   8.0982208  52.0825672
  92.0222808   7.8621578  52.5770521  90.5714370   8.2565689  52.7516031
  19.3498278   2.8159732  61.7492962  19.8550653   3.6235431  61.8430948
  18.4588647   3.1112868  61.5616655  12.4714935   3.3570871  42.2946501
  11.5784967   3.0150336  42.2523832  12.3857975   4.2804018  42.0572090
  28.5557055  34.1405392  36.2092161  27.9227519  33.6583495  36.7412806
  28.3413506  33.9021611  35.3072953  54.5402953  90.5222672  79.9594760
  54.3650624  91.4526933  79.8186517  53.8846335  90.2495211  80.6013096
  96.7037795  40.7770109  18.5556591  95.9811638  40.3190756  18.9850235
  97.4646006  40.2151346  18.7028897  28.7647414  68.7073135  58.3010387
  28.8016915  69.6207952  58.5846233  29.6616149  68.3885956  58.4023905
  87.2695503 102.2794974  52.4343491  86.6128252 101.7769838  52.9164505
  87.1203289 103.1866021  52.7010393  84.1485356  13.6586237  25.4046464
  83.3048080  14.0255332  25.1405764  84.2544435  13.9329231  26.3155675
  61.0347495 106.6520059  55.2297497  61.7233775 106.0019405  55.0903320
  61.2393377 107.0388211  56.0810757 111.5258582  44.6620703   1.6011131
 110.7168438  44.3580151   1.1896796 111.6126908  45.5715275   1.3154924
  14.4691765   9.4976622  68.8016224  14.6903300   9.1020918  67.9585028
  15.2861011   9.4720709  69.2998314  13.2704341  87.0959663  13.2763875
  12.7729237  87.1607685  14.0915668  13.9003885  86.3930607  13.4354925
 103.8311331  47.9785347  52.8779554 102.9453586  47.8347635  53.2110691
 104.2220204  47.1051645  52.8521729  13.0104017  29.2796731  33.8874006
  12.4352968  29.7093892  33.2542872  12.6509416  28.3970666  33.9769888
  12.6915050  31.9316888  66.9262981  13.0253983  31.2087250  66.3951969
  12.3788691  31.5146327  67.7291393  12.4869359  47.6614189  10.8101821
  12.6539028  46.7190838  10.7911468  13.3545125  48.0567074  10.8955693
 107.6931177  16.5559089   6.1217672 108.1361215  16.2614846   5.3259695
 107.0552860  15.8673286   6.3095456  96.4576064  84.6739388  32.9832196
  97.0064352  84.5762062  33.7613368  95.5799471  84.8379898  33.3282304
   6.7976928  32.0332623  43.7593031   7.3685211  32.5137424  44.3589067
   7.3984617  31.5463448  43.1951952  49.5244312   3.6321601  17.3676264
  49.4908190   2.6947084  17.1771383  50.1968908   3.9725086  16.7775464
  13.9059651  58.8821125   7.7886271  14.0061045  59.7769451   7.4638432
  13.8704431  58.9754105   8.7406069  52.5870570  97.2404020  85.3325218
  53.4285936  96.7998140  85.4505354  52.0188257  96.5725916  84.9486280
  38.3985829  57.7390146  12.2967374  37.6684666  58.3531141  12.3745131
  38.4210134  57.2856236  13.1394517  42.6544952  40.1046610  36.0456824
  43.5282278  40.2327776  35.6763434  42.8134346  39.8573399  36.9566178
  93.1588720  31.6594410  53.5357809  93.4991752  32.5539398  53.5185719
  93.4284590  31.2844515  52.6973629  10.8436680  51.3023758  32.4590826
  10.0501049  51.1381721  32.9685211  11.5501928  50.9377575  32.9921007
  21.2194967  58.0208588   7.2137910  22.1160221  58.3473063   7.1369344
  20.9389687  57.8762293   6.3101208  91.2745713  60.6470490   0.0506187
  91.7418455  61.4814997   0.0903284  90.6449841  60.6906128   0.7703084
  57.5954103  43.2254314  33.1044674  57.6871538  42.3621511  33.5076523
  56.7639828  43.1820536  32.6321507   3.6934477   8.9493996  38.0657077
   3.0899614   8.2246614  37.9020286   4.3680316   8.8559222  37.3930788
   4.8604530  39.9808598   3.2902005   5.7175034  39.6141982   3.5075867
   5.0330192  40.5778408   2.5621465 106.3092785  41.0705328  32.5303483
 106.9412975  40.5063486  32.9758596 106.1738531  40.6533527  31.6795540
  27.6639414  42.5356531  35.4111862  28.1209111  43.2895517  35.0382900
  27.7349019  41.8566704  34.7402358 104.8470305  64.2819262  52.7103901
 104.5936106  63.4416151  53.0923367 104.8513989  64.8895931  53.4499550
 109.5543613  57.8247690   3.5097787 110.0385965  57.7360678   4.3306807
 109.7338708  57.0121765   3.0368069  47.9400418  40.0677602  64.6727860
  48.2618830  40.2706735  65.5511225  47.2050498  40.6669919  64.5426452
   9.8698264  52.3981857  71.6110086   9.4015896  52.1876431  72.4188805
   9.1870850  52.6929188  71.0083246  11.6323590  88.6812687  36.4687181
  11.4804745  88.2817936  35.6122231  11.9293106  89.5691967  36.2696004
 106.0630809  26.9174480  14.5149887 106.1151169  27.8498173  14.3047261
 106.5379588  26.8314719  15.3416264  26.7843723  43.9310217  39.8874688
  26.7786813  43.3914471  39.0968633  27.6971388  44.2019033  39.9860096
   6.2876868  41.1814690  36.2444425   5.5164552  41.6122007  35.8757877
   6.5041733  41.7000484  37.0193267 112.4257428  46.1265373  60.5792046
 113.1005260  46.1178017  61.2580442 111.8295446  45.4191780  60.8250141
  20.9058762  45.1143026  34.7247505  21.3706946  44.2824650  34.8154473
  21.1677361  45.4424429  33.8645267  37.7468371  43.0539846  49.0254068
  36.8945098  43.0029345  49.4580269  37.5641489  42.8405619  48.1103611
  21.8431258  51.0902214  12.5340676  22.1650791  51.7074251  11.8770802
  22.6041412  50.9089041  13.0856192 100.8883952  73.7515640  19.7224677
 100.9985803  72.8860426  20.1161170 101.2683724  74.3551588  20.3608441
  89.5036577  49.1352272  46.4216423  89.5472906  49.9113321  45.8630848
  89.6263717  49.4717598  47.3092890  13.7118030  60.4903746  18.4906638
  13.0786252  60.7256556  17.8124619  14.1766536  59.7342110  18.1323850
   1.9256765  50.3853559  58.7215090   1.5611506  50.4555655  57.8392267
   1.1706292  50.4853868  59.3012762 111.4067264  77.3229265  26.0908461
 111.8024720  77.3086834  25.2194023 112.1460654  77.2273636  26.6912436
  17.5273979  65.5534983  36.8988299  17.5040865  64.8023415  36.3059974
  18.4570587  65.6804180  37.0881820  94.4113086  70.5370140  54.9957418
  94.1596220  70.7687092  55.8897209  93.5804413  70.3948641  54.5422173
 110.8980487  43.5501194  41.1148262 110.1223271  43.2204962  41.5685177
 111.0177059  44.4358015  41.4575768 106.1092208  49.7267866  22.9250503
 106.8371706  50.0062323  23.4802341 106.2156872  48.7785053  22.8498173
 110.0852834  49.8555231  46.5682077 109.7362180  50.7329082  46.7250013
 110.3650717  49.8691034  45.6529140  98.8620339  40.8457756  59.3929911
  98.4697686  41.4359045  58.7494802  99.1552971  40.0927687  58.8799477
 100.0206195  50.3021431  27.6677895 100.4021142  49.4693184  27.3901224
  99.2790781  50.4346466  27.0772052   6.3373196  13.8039577  30.3708339
   5.9173620  13.8048172  31.2309885   7.1326739  14.3225491  30.4921007
  11.7530596  32.5744343  44.9548101  11.8640792  32.2024560  44.0798616
  12.4527180  33.2233548  45.0297356 107.1794008  13.1264877  75.1509666
 106.6622041  12.3294401  75.0349665 107.1070723  13.5830438  74.3127775
  26.7021585  69.7784710  24.8692513  27.3307848  70.4037762  24.5086265
  25.9385228  70.3096628  25.0949121 107.5224684  42.5903320  11.4813983
 106.8335490  42.0333433  11.1189270 107.1468858  43.4707451  11.4748502
  15.4987502  38.8027573  31.9919991  16.1133802  38.1998205  31.5737534
  14.8848033  38.2344794  32.4571466  23.3427668  30.7046151  46.1172771
  23.8747144  30.8005214  46.9072580  23.0576563  31.5947771  45.9109831
 110.1061107  23.3627295  21.6942239 109.5259564  22.7734804  21.2121058
 110.0107063  23.0973268  22.6089334 105.4711471  49.7379303  56.1954641
 105.6433116  50.3692627  55.4968882 105.7846729  50.1690149  56.9905090
  12.7265155  16.0758531  20.6254363  11.8775284  16.4086413  20.9164786
  13.2539654  16.0348964  21.4231539  87.7222834  92.2711588  11.1912274
  87.4661205  92.6129759  10.3346217  88.6011622  92.6216853  11.3359153
 105.6540470  20.7279921  35.0198889 105.8890061  21.4861059  34.4848299
 104.7519664  20.5284715  34.7695422   4.3099567  11.5320849  36.7962408
   4.0619156  10.6310701  37.0033097   5.1931614  11.6254449  37.1532631
  20.8105469  43.0297565  70.8446836  20.5475116  43.3939266  71.6899157
  20.0744009  43.2189369  70.2628469  72.9407069  82.6644009  89.9078319
  73.5748359  82.7043980  90.6237315  72.6924941  81.7412322  89.8590282
 102.6958834  49.2068672  15.1422071 102.1198724  49.7678232  14.6228063
 102.5473820  49.4830656  16.0465813  96.9052635  26.9478798  32.4169254
  96.1391114  27.4000549  32.0636821  97.6140474  27.1702027  31.8132472
 111.6370760  72.7780294  41.6855669 110.9787776  73.4383678  41.9019747
 111.1296843  72.0206642  41.3937044 103.7514631  37.0018625  12.1327460
 103.7717353  36.0994244  11.8142700 103.9994816  37.5294137  11.3735294
  23.8808751  37.4733877  20.3354859  23.3228469  37.2765398  19.5831001
  23.6856794  36.7804003  20.9662795  62.0023557  77.8713625  90.5879765
  61.3141152  78.5197061  90.7369942  62.6124617  78.3028834  89.9898190
   3.0827406  48.0688238  59.2611313   2.5746748  48.8058233  58.9221144
   3.3159289  48.3284998  60.1524353  13.2153392  59.7513533  52.6022720
  13.8607478  59.0667391  52.4262524  13.7010992  60.4200220  53.0851316
  39.7014952  90.3814602  29.3512154  39.2134881  89.5639706  29.4502044
  40.6175232  90.1087284  29.2988205  74.4314760   9.1943519  85.2555174
  74.7287372  10.0032585  85.6720925  73.5038651   9.3453329  85.0739271
 105.8603798  72.4491739  26.5686202 106.4317249  71.7296219  26.3002110
 106.2555139  73.2278252  26.1764455  22.5777864  79.2894745  19.3481040
  21.7738628  79.0819025  19.8243952  22.8008127  80.1766682  19.6298444
  18.0213392  88.8985920  29.1670418  17.9040956  89.3157578  30.0205398
  17.1376693  88.6439323  28.9015126  21.4073658  69.1132450  73.9867926
  21.3711143  69.5569801  73.1394339  21.9443178  68.3369398  73.8278532
 106.9397901  54.3611050  25.6004953 107.6871829  54.0366173  26.1028337
 107.2880261  54.5083952  24.7211385  86.6780398   1.1013906  88.4346718
  87.1977804   1.1014907  87.6308677  87.1213970   0.4747360  89.0064887
   8.5599643  70.1136875  39.2325044   8.9066625  69.2533827  38.9960480
   8.6144000  70.6241608  38.4246159  43.8399061  64.2598837  89.1247645
  44.3406144  63.7272351  88.5068578  42.9935369  64.3906563  88.6972261
  10.3209257  40.7052803  16.5328228   9.9147880  40.4058743  17.3462331
   9.5840049  40.9500742  15.9731293   8.5280675  49.9974537   7.5207680
   8.8621265  49.1735411   7.8754640   7.5786656  49.8787546   7.4928600
 109.3638794  74.1674852  42.2768593 109.1434126  75.0590181  42.5466585
 108.5901831  73.8624096  41.8029833   0.1963075  49.8403835  36.4962769
   0.3623235  49.7404337  37.4336576   0.2145559  50.7860565  36.3493013
   8.9237159  69.1523027  28.5184550   9.5262116  69.2715931  29.2526221
   9.4899029  69.1153145  27.7475500  29.7841311  65.1432943  46.6796446
  30.5718350  65.2162695  46.1407280  29.2837095  65.9346628  46.4807749
   5.0939876  55.1606178  55.3929996   5.5964035  55.0950003  56.2050962
   4.3086934  54.6376085  55.5542707  10.3537118  51.1908579  36.3666844
  11.2999964  51.1573744  36.5068817  10.0548899  51.9120407  36.9206119
  33.6243510  63.0615282  24.0460753  33.4544182  62.1195555  24.0399289
  33.9674997  63.2372904  24.9221969  93.0216025  83.3158302  32.7051091
  93.4057115  84.1439152  32.9931545  92.4698828  83.0402470  33.4371567
  16.2957323  46.8999434  42.1633244  16.9421875  47.4898291  42.5510931
  16.6745472  46.0271740  42.2682476   1.6792449  40.6374741  32.7404046
   1.6506228  39.7595382  32.3600841   1.6830257  41.2256289  31.9852281
 106.8432282  35.5934119  44.6716833 107.3072694  36.3693166  44.3572474
 106.9390492  35.6263542  45.6235027  28.3648229  48.2576132  19.9920714
  29.1635966  48.3779287  20.5056047  27.7831316  48.9585781  20.2861977
  95.2710722  54.3217802  27.1076703  95.9507512  54.0256643  27.7131319
  94.6907733  54.8615599  27.6444411  34.0103769  53.8944530  15.3337073
  33.8019633  54.0709019  16.2511277  33.5946894  54.6094751  14.8518562
  10.1082730 100.6862068  56.6734600  10.0091088 100.2938175  55.8060360
  10.4087687  99.9668312  57.2288275  18.6470199  86.4601040  19.1241777
  19.4714177  86.8121529  18.7885308  17.9860544  87.0963478  18.8511348
  30.7830644  79.8190975   4.7050232  31.1628556  79.0970993   4.2043167
  31.3600826  79.9146795   5.4627478  26.5858793  39.4772863  18.8527727
  26.2803459  38.6075521  18.5950077  26.0920238  39.6788144  19.6475828
 106.8550043  58.0934429  58.7870073 107.4682330  57.9494429  58.0662823
 107.4052815  58.1097126  59.5700550  97.2739921  65.1535892  50.2560472
  97.9688738  64.5915937  50.5988789  96.7329107  65.3577948  51.0187817
   2.9067397  48.1603241  62.7880764   3.8073021  48.3314896  62.5125408
   2.4276713  48.9531231  62.5468397  94.9322698  22.0238988  72.9708481
  95.1964185  22.3499982  73.8311494  94.4383357  21.2257593  73.1585551
   3.0953753  69.3581057  21.4621997   2.8387377  70.0179815  20.8180475
   2.6041463  69.5892048  22.2505641  16.3539410  85.8723354  34.8581290
  15.6681728  86.3960075  35.2725220  16.1522996  85.9103203  33.9231825
  39.0346146  76.5072250  46.7144918  38.7522244  75.8413982  46.0874653
  38.2499528  77.0305490  46.8778038  26.8530607  70.3908825  72.4745369
  26.4085960  71.0788345  72.9699183  27.4722099  70.8602428  71.9154406
  95.8216355   4.5139806  83.8940603  95.1268981   4.6487825  84.5385760
  95.7912514   5.2954595  83.3421523  35.2908087  73.8138103  14.0932894
  34.5403934  74.4044781  14.0283096  35.0127745  73.0218267  13.6331964
   8.0125999  78.3802891  54.9807882   7.3566496  79.0764427  55.0172901
   8.8516027  78.8395882  55.0175333  25.5997419  64.6052694  32.8622460
  25.4958844  64.6205616  33.8136721  25.1805186  63.7894154  32.5886321
   0.8193484  46.1104012  47.3318958   1.5958525  45.5511141  47.3101759
   0.1454695  45.5687618  47.7426815   9.6355230  83.9109135   3.1986040
  10.3989553  83.4029007   3.4730569   9.1945463  83.3532524   2.5576773
  29.9860978  56.1028910  11.8746686  29.4593978  56.8913412  12.0056796
  30.8851242  56.4241600  11.8056107  89.8993729  58.4795618  46.8275738
  89.4816945  57.6182985  46.8260479  89.3474649  59.0144157  46.2570000
 107.2817902  41.2823439  46.2411213 107.0407794  41.9065952  45.5566835
 106.5643971  41.3308716  46.8729639   3.4639469  31.8843198  69.3690538
   3.8807297  31.2114477  69.9073553   2.5583139  31.5889549  69.2751455
   6.9780403  94.3286324  24.3048573   6.2262321  94.0453148  23.7845254
   7.3013264  95.1084995  23.8537216  27.9269648  51.2697268  17.5293911
  27.9658341  51.1697245  18.4805596  28.6252213  50.7037020  17.2003198
  19.8559213  74.0676212  60.8523226  20.5942416  74.0433931  61.4610338
  19.6374893  74.9965668  60.7776070   5.5427313  50.7752943  84.8180771
   5.7345825  51.2244558  85.6412888   6.1292243  51.1826468  84.1806412
  12.6102972  56.5903997   8.6244261  11.9999957  56.4946842   7.8932607
  13.3330500  57.1063662   8.2671571 104.6717606  68.0985832  54.5611572
 105.2815323  68.6802626  55.0150967 104.1280131  68.6849785  54.0351200
  27.3030210  63.3098841  72.5899458  27.4142003  63.9411688  71.8790627
  26.7539525  62.6212549  72.2150517  18.4950089  72.2490358  30.5631590
  18.5094237  72.8515720  31.3067818  18.0538881  72.7371550  29.8679018
  23.6622667  39.3154764  23.9215851  22.8770638  39.5452714  23.4247136
  23.9328980  40.1354980  24.3345642  17.7590752  45.4555225  27.2634459
  18.6659789  45.1518345  27.3025560  17.7228034  46.0009289  26.4776683
  81.7089925  20.0505941  82.8373152  81.4418272  20.5828063  82.0879126
  82.4953363  20.4831855  83.1701225  26.2212992  71.0856628  65.0283623
  26.8525195  71.3070822  65.7130289  25.3683734  71.2795305  65.4171610
  19.8658907  52.2857714  54.9861670  20.6956267  51.8207979  54.8786068
  19.8516643  52.5400019  55.9088802   5.7388884  43.6667490   7.5533038
   5.7251561  44.5395565   7.9460436   6.0210001  43.8146782   6.6506624
 105.8877222  42.6329803  23.4704351 106.3262992  41.7921543  23.3404303
 105.2963065  42.7128649  22.7220511  28.0530810  82.5579929  40.2927494
  27.5586128  81.9826221  40.8764315  27.4626589  83.2921505  40.1234818
  76.2186932  10.7032316  90.2019656  75.8371096   9.8254840  90.1885149
  75.8518877  11.1118715  90.9859938   2.2907591  58.0239153  27.8142524
   1.4453827  57.9069090  28.2477045   2.9369330  57.8522396  28.4992480
  20.2528119  30.1582527  12.5071895  19.4613194  30.1699758  13.0453670
  20.7215428  29.3722200  12.7876782   3.5860184  59.5341730  38.7800956
   4.3135539  60.0800896  39.0782499   3.9871180  58.9099598  38.1753564
  29.7939798  90.6229418  86.3805610  29.6553281  90.8111470  85.4523444
  28.9444330  90.7906430  86.7884553  21.7135310  42.5229788   0.4777746
  22.0296478  43.3892488   0.2211037  21.2624598  42.6692963   1.3092549
   6.8511873  84.3228245  47.8711748   5.9341806  84.2009926  48.1171179
   7.2988397  84.5036888  48.6976910  16.7756483  76.5932339  82.7773279
  16.2459537  76.5463846  81.9814253  16.1818978  76.3199537  83.4766209
  11.7364979  72.8645086  13.8368547  12.2553134  73.6585331  13.9656687
  12.0970047  72.4689674  13.0432475 106.9616775  44.1654444  19.1912484
 106.3324033  44.5879889  19.7758019 106.7950456  44.5593643  18.3349240
  12.8038359  78.2509089  20.4407430  13.3963418  77.5964975  20.0707173
  13.3711290  78.9891100  20.6631589  37.9831171  45.4403973  40.5003405
  37.0650864  45.3148699  40.7405424  38.3675265  45.8925390  41.2513590
 107.6911102  40.1316357  67.0064116 107.9964171  39.2284012  66.9216585
 106.8343966  40.0564432  67.4266720  93.1037281  81.0433292  18.7984610
  93.2888912  81.9778919  18.7060940  92.5672077  80.9824276  19.5888197
  32.8554440  50.3693390  30.2425432  33.2639241  50.2776194  31.1033368
  33.4216285  50.9816933  29.7727752  26.7650032  71.9118595   1.2620220
  27.4650764  71.2703037   1.3825794  26.2654161  71.5835762   0.5144438
   3.4290546  29.3584919  48.9838362   2.5761679  29.1210175  48.6199379
   3.9814472  28.5946321  48.8176632   2.8079715  71.7832518  30.0847077
   2.6376054  71.0031557  29.5568252   1.9423907  72.1615028  30.2393889
   9.8329884  42.2939920  49.2502594   9.0817064  42.8093481  48.9566374
   9.8794317  42.4538851  50.1928663  79.8983835  65.3692102  38.1740189
  80.0385736  65.9214306  38.9431930  80.7734464  65.0621510  37.9369187
 102.0872305  59.5160341  55.4764891 101.6505872  58.6674643  55.5506468
 101.4691590  60.1378202  55.8606815 102.6894139  63.3015966  25.7857656
 103.4449236  62.8253317  26.1301565 102.7638839  63.2139540  24.8354983
  13.4374881  45.6660461   6.3683486  12.6663554  45.7559156   6.9282675
  13.1743646  46.0547304   5.5341291  11.9849348  64.1531420  27.4746966
  11.4813352  63.3436584  27.3889184  11.4588094  64.8117352  27.0211816
  23.9372253  38.7028289  41.5625620  24.3036366  38.1622601  40.8627319
  23.6257243  39.4912553  41.1180639  42.0471716  52.5607824  20.3758430
  42.1313334  51.6127110  20.4773712  41.1281586  52.6962996  20.1450086
  28.2329440  38.1235290  39.6402884  28.7327123  37.7691507  38.9048433
  27.5992203  37.4380112  39.8516941   6.6944987  77.4659586  20.5880380
   6.7349952  77.5215149  21.5427661   6.3819003  76.5783739  20.4128146
  17.1378374  35.1952147  30.0780225  16.3377631  35.7119393  30.1734591
  17.5287187  35.5074787  29.2619729 100.6484185  25.8828473  42.1900654
  99.8832212  25.3301334  42.0312834 101.2772058  25.3034925  42.6204205
  13.1243789  70.8878660  32.0975852  13.9598858  71.1229181  32.5012064
  12.5268364  71.5886974  32.3583651  43.9035416  79.7650194  39.1672778
  43.9014053  80.1867199  40.0265741  43.1150627  80.0951385  38.7365127
  97.6844905  72.9387045  49.5258665  97.1644507  72.1669054  49.7497368
  97.2918139  73.6479521  50.0347853  93.6679994  59.1885996  28.7492371
  93.1753395  59.9917507  28.5805321  93.8375245  58.8246155  27.8803253
  15.8066297  41.5239429  32.2373486  15.7950854  40.5767155  32.1000409
  15.0331867  41.8428230  31.7722321  76.3417743  71.6133070  37.6012325
  76.0509990  70.8219433  38.0544686  75.7767652  72.3063040  37.9429197
  47.5858352   6.8243520  85.7210040  48.3758900   6.8097894  86.2612182
  47.8517911   6.4169424  84.8966766  36.5795732  31.7630720  40.0395441
  35.6265450  31.8070579  40.1172113  36.8222022  30.9684801  40.5149221
  31.0567856  91.5862656  29.7171021  31.9533157  91.7346573  30.0178409
  30.6582785  92.4565601  29.7133231  38.0700922  63.4046793   8.6259264
  38.7635541  63.4563684   9.2837018  37.5813317  64.2212725   8.7284935
 108.2449195  24.6012609  92.5852711 107.7990410  24.1346233  91.8783919
 108.4331033  25.4658477  92.2201574  28.3238244  60.4410124  31.3909602
  28.8756704  59.8875618  30.8383393  28.7015796  60.3576708  32.2665119
   6.1246252  54.3089628  57.8992081   6.2438530  53.5888672  58.5184669
   6.9869626  54.7203732  57.8413677  36.3443637 103.2865715  35.5623317
  35.7192326 103.1646347  34.8477840  36.5900350 104.2102623  35.5106235
  13.3362329  62.8478622  42.8003216  13.6474669  62.8514004  41.8951368
  14.1330326  62.9037762  43.3277845  22.5753427  79.1871500  44.7669697
  22.7299070  79.1982079  45.7115412  22.0781374  78.3834505  44.6150255
 107.9700302  36.3305187  17.2732782 107.7863578  35.8272934  16.4800179
 107.4339543  37.1187449  17.1863818  33.1863427  66.4740849  29.5309305
  33.8346195  65.7878637  29.3725896  33.3982611  66.8071651  30.4029274
  98.0153272  36.8472211  63.1883800  97.7212164  35.9429281  63.2978618
  97.5807188  37.1453588  62.3893440  24.9910760  62.3676729  29.0000749
  24.8474789  63.2477474  29.3480420  24.8227882  62.4508286  28.0614591
  22.3117614  67.9464626  36.6404939  22.1178913  68.7982035  37.0318770
  23.2676649  67.9108906  36.6056347  22.7983546  84.9070644  27.3260164
  22.7318645  85.1852322  26.4125419  22.5380230  83.9860058  27.3154664
  88.0657552  90.3476048  24.4081306  88.2107161  89.5228767  23.9444041
  88.7620805  90.9245014  24.0941954   8.1201398  44.6022272  83.0133438
   7.2959387  45.0808620  83.1018448   8.7298000  45.2412844  82.6443577
   9.2987949  43.6876774  35.4887033   8.9472592  42.7994204  35.4282689
  10.1993561  43.6108160  35.1735616  25.6942511  87.3190498  26.9134140
  26.4780354  87.8173637  26.6818929  25.9413624  86.4050293  26.7729449
   4.6571344  45.6271744  28.7133980   5.5445868  45.4598331  29.0306616
   4.1465938  44.8796892  29.0245986 111.7653246  39.4444919  27.0402098
 111.5914527  40.3857517  27.0346999 111.1271305  39.0794468  26.4272809
 108.3636092  63.5393524  48.8927746 108.9551412  63.1954908  49.5621634
 107.5585555  63.0331230  49.0016556  34.0646410  70.6680536  50.0284767
  34.3404770  71.4927673  49.6284771  34.1833377  70.8061457  50.9681940
  19.1086960  63.4011507  17.7947116  18.7368536  62.5235558  17.8829837
  18.8392735  63.6888027  16.9224167   7.1359086  61.6331148   1.8466686
   7.4000132  62.5424671   1.9864982   6.1945373  61.6800594   1.6797946
  49.1511536  41.2977362  50.6715107  48.4457397  40.6712723  50.8332682
  49.7897339  41.1231470  51.3628626   8.7166083  75.6538677  36.4519572
   8.7291908  75.6024837  37.4076939   7.9383850  76.1734056  36.2502575
 106.7046730  75.6047249  46.4906549 106.4349745  76.5049028  46.3085079
 105.9164290  75.0832272  46.3391829  49.6160316  79.7626829  19.1683841
  50.5057526  79.8919106  19.4969022  49.2949772  80.6470490  18.9921546
  42.3679566  88.6581510  89.2876485  42.5371507  89.4821899  89.7443375
  41.8073192  88.9030378  88.5514778  23.5153890  79.6285868  31.8989515
  24.4482279  79.4684982  32.0418429  23.3999443  80.5592251  32.0908260
  18.2268465  37.0791268  56.7373228  17.8638947  37.7826309  56.1991978
  17.4612188  36.5958786  57.0479918 101.0152040  72.9751682  11.2581313
 100.5177806  72.8559017  12.0671904 101.7553602  73.5268736  11.5111542
 110.8215745  60.3444767  26.3822412 110.3624819  61.1537409  26.1573958
 111.4595585  60.6074190  27.0456195  89.6536373  23.3755994  16.1629784
  89.4561766  24.2771482  16.4168501  89.8333143  22.9278541  16.9897044
  35.4849386  65.7358027  42.8345060  34.5283699  65.7173443  42.8050900
  35.7324696  64.8592949  43.1289434   8.4925401  50.2003431  33.5283470
   8.5193479  51.0533476  33.9618158   7.8042781  50.2882862  32.8689575
  16.6049683  57.7561760  59.7391510  15.7493234  57.4498749  59.4386768
  16.7616212  57.2718430  60.5497789  35.5402308  15.5192947  67.4608898
  35.0813840  14.7008323  67.2716522  36.3497273  15.4629707  66.9531727
   5.6861925  60.2842712   8.0013931   6.5092486  60.1254940   7.5392234
   5.3327608  59.4104910   8.1682158  32.0159960  42.9728746  37.9855657
  32.1289730  43.1290770  38.9231539  32.1820498  42.0364523  37.8770423
  39.7875929  36.8361354  31.7963839  40.2812147  37.6548529  31.8440413
  40.3057051  36.2774539  31.2170148   0.2297835  97.3092175  26.4357162
  -0.1726436  96.6073895  26.9473028   1.0567355  97.4880314  26.8833852
  29.0225339  78.9462948  40.4134846  29.4539642  78.1742191  40.7795429
  28.3622146  78.5919142  39.8179817  12.0826876  65.1855898  74.0796089
  12.4958289  65.6436729  74.8115301  12.4765146  64.3132210  74.0900612
 110.1045297  46.8550301  72.4870682 109.9917836  46.2060785  73.1816053
 109.2833619  46.8255234  71.9961071  12.8772760  67.6258440   0.8442700
  12.1718479  67.8914089   1.4342510  12.8431440  68.2609971   0.1289665
  29.6035028  69.7066832  27.5957680  28.8686514  70.2795792  27.8148818
  29.1935182  68.8988638  27.2866130   3.7014824  50.2372074  41.8379021
   4.2546898  49.5320797  42.1740389   4.2859086  50.9930372  41.7795467
  45.4694891  95.2109146  27.8634334  45.8579493  94.7504616  27.1195841
  45.6503296  96.1354446  27.6937890  38.0829024  30.9546661  31.5724778
  38.2829571  30.5506110  32.4168420  37.2952914  31.4735198  31.7358541
  20.2834988  66.4992046  34.3938422  20.8788371  65.8032942  34.1154361
  20.3515792  66.5049267  35.3486013   3.7031215  33.8544321  14.9629855
   3.5343105  32.9455853  15.2114475   3.5139057  34.3582368  15.7545710
  14.3686569  95.6147671  28.6616230  14.9658465  96.1227989  28.1125402
  14.0058112  96.2533855  29.2754078  30.0642037  89.0769482  59.8027277
  29.3053579  89.2098045  60.3708220  29.7019410  88.6897182  59.0058231
   7.8473103  41.1504507  10.4140210   8.7050247  41.0044479  10.8130717
   7.9990971  41.8368769   9.7644007 107.6743583  50.5919838  20.2629161
 107.1284436  50.4590368  21.0378575 108.0892770  49.7424030  20.1136160
   8.9358670  82.9643154  16.2134361   8.6926275  82.0388126  16.2360263
   9.5899922  83.0570221  16.9060814   8.4506983  66.1955595  22.1004796
   9.2191696  66.5501785  21.6533422   8.5483891  65.2461100  22.0281124
 108.1443553  81.5408611  25.6261325 108.8614200  80.9085941  25.6739354
 107.3626260  81.0333920  25.8443093  91.1834954  49.6491861  17.9420543
  91.9516538  49.0927935  17.8132558  91.5436624  50.5216742  18.1010520
 106.1185347  80.6348419  45.4360676 105.8431236  81.5176105  45.6832743
 106.5433012  80.7458496  44.5854902  29.8129177  20.4472208  53.2687092
  29.3843365  19.5932484  53.2114363  30.6266880  20.2755046  53.7425470
   3.5949773  41.5754271  34.3718314   2.7443323  41.2848854  34.0428591
   4.0538990  41.8987370  33.5965300  31.9467664  49.9152231  43.4425592
  32.5301003  49.1724920  43.5984516  32.5091934  50.5834007  43.0508423
 107.8418116  56.4235210  33.0491519 107.0808743  56.8903399  33.3945322
 107.9070507  55.6374931  33.5914898 103.0115543  67.2609329  59.5312214
 103.0290161  67.8905058  60.2520323 103.9125244  67.2411776  59.2085886
   8.4819180  68.9815474   7.0616055   7.6195693  69.1042948   7.4584937
   8.7245512  69.8507023   6.7423379  12.8628612  58.6436510  65.1057768
  12.2292149  57.9733658  64.8499632  13.7148213  58.2587147  64.9002981
   1.3088772  13.3212042  23.2346869   1.8772249  12.6100111  23.5303521
   1.6385336  14.0961576  23.6896658  36.1532760 104.6535492  40.3868246
  37.0199060 104.2580891  40.4805708  35.5433846 103.9267445  40.5133533
  12.7799594  43.3473682  21.8465543  13.4710586  42.8839970  21.3733673
  13.2465649  43.8823605  22.4886560   5.0613952  52.8016424  49.8892736
   5.4878306  53.6501932  49.7695065   5.7004642  52.2786188  50.3732872
   3.5397705  48.3609867  47.8213024   2.8575212  48.5362720  48.4694099
   4.2442578  48.9693022  48.0446434  85.4719399  80.2019882  56.3758898
  86.1340259  79.5451641  56.5914202  85.0487111  80.3986549  57.2116137
 111.2137647  29.0657973   7.9018277 110.9784365  29.4252896   8.7571740
 111.2877580  28.1230927   8.0503607 101.9273721   2.5952202   5.5328828
 102.0574950   2.9784188   4.6654391 101.5007983   1.7554909   5.3622323
  26.5797782  97.6464462  42.9727745  25.8745909  97.0427036  42.7394724
  26.2287045  98.5139370  42.7716923  96.7631255  34.3230295  57.9723835
  96.7028235  33.9528346  57.0917320  97.6618992  34.1418266  58.2473421
  28.3365774  51.0633898   5.7421988  27.8934264  51.6162109   5.0985879
  28.9273167  51.6589689   6.2032270   9.5762146  36.3294578  48.3547163
   9.3881172  36.0772085  49.2587233  10.4079974  35.9002209  48.1544113
  12.1658146  80.5611515  46.3899279  12.0585990  81.5046406  46.2692070
  11.5231049  80.1694489  45.7985544   5.5300838  56.8141508  20.9241533
   6.3494819  57.1734428  21.2643433   5.7760751  56.3966370  20.0986838
   1.1497860  62.5078726  69.5376968   0.4516410  62.9919386  69.0966702
   1.7599827  63.1835651  69.8332214   3.4737569  77.6739216  48.0424881
   3.6042875  76.7909908  48.3883524   2.9109338  77.5509357  47.2780704
  50.4121432  91.5935033  83.2649166  50.0545451  91.9416588  84.0817046
  49.7487017  91.7989104  82.6062155   0.3541049  38.8463140  40.1364422
   0.1278536  38.3743644  40.9378862  -0.4317423  39.3504310  39.9253964
   3.9659625  55.6274652  70.5503559   3.4808391  55.2040386  71.2585878
   4.8629451  55.3086662  70.6504583  30.3081942  60.1603699  43.3766985
  30.3975844  60.7863379  42.6580906  30.1806664  59.3159676  42.9443264
  19.5690942  76.3217688  19.1939270  19.1122806  76.4114714  18.3575618
  19.7601569  77.2211313  19.4601464   6.4989567  73.0058098   5.9461403
   6.6566873  73.9499235   5.9476966   5.7198352  72.8940439   5.4014295
  43.6101007  61.1281490  26.1141515  43.4473038  60.7674170  26.9857025
  43.9475155  62.0086861  26.2785792   7.4704546  80.9961414  35.6455493
   7.4175090  80.6632042  36.5414166   6.5649420  80.9938431  35.3352714
   7.7560657  76.6675329  52.7485132   6.8972838  77.0728397  52.8687239
   8.1882787  76.7660666  53.5968733  32.3632789  53.1003618  33.6030126
  33.0590916  53.7562990  33.5603571  32.7526855  52.3689222  34.0821671
  36.7672944  56.1167431  21.8079376  37.2222638  55.9982777  20.9741521
  36.6536903  55.2288723  22.1470618 108.2182454  52.4114943  40.7006073
 107.2645740  52.4371481  40.7786083 108.5298504  53.0191326  41.3713598
  20.1888514  42.7192926   3.1896242  19.7935390  41.8488216   3.1422386
  20.1999021  42.9267836   4.1239992  37.5263453  65.1067686   1.0150424
  37.1326923  65.7093859   1.6460098  37.9410172  65.6759882   0.3667592
  10.9258282  63.7945843  17.2657526  10.1087832  63.9612627  16.7957664
  11.5873516  64.2844915  16.7772782  26.9124889  41.0297394  45.1296616
  26.6007447  41.5258026  45.8866072  26.4894390  41.4468956  44.3791676
  84.9816988  38.1919360  71.2106371  84.5529078  39.0367270  71.0739040
  85.4984973  38.3118224  72.0073700  45.4563904  44.0471363  52.4459219
  45.0889397  44.8874569  52.1719408  46.2286472  44.2800331  52.9612970
  26.6705585  90.2480125  41.8963861  26.4501023  89.6370506  42.5994921
  26.9135356  89.6875286  41.1594677  16.8235970  88.2935143  45.5874634
  17.0775473  88.2013893  46.5057516  16.1844420  87.5954628  45.4445267
  15.4226077 102.0836735  79.3123531  15.0050521 101.7761230  80.1168919
  14.9948096 102.9191589  79.1247511  40.7604662  11.1479282  22.9774070
  40.6259305  11.3349342  23.9064717  39.8964510  10.8879375  22.6578569
  20.2990270  66.0960484  36.8793607  20.9190178  66.8213844  36.8036985
  20.8174849  65.3738117  37.2340608  23.1780171  74.2984009  11.4713216
  23.6194849  74.0849161  10.6492746  23.8170934  74.0808582  12.1499133
  22.3539615  66.4243698  62.3269081  21.8334460  65.6252956  62.2445726
  23.2105613  66.1900949  61.9697237  29.9531484  69.1680908  18.2474875
  30.1056933  70.0520468  18.5815275  30.1155424  69.2362499  17.3066294
  13.6676121  53.9157534  36.7619061  13.2272780  53.3728504  37.4158144
  14.5324361  54.0861225  37.1351171   9.3792659  76.7013550  31.5934157
   8.9292496  76.2931299  32.3330569   9.8854351  75.9909296  31.1993170
   7.5544411  69.1869593  34.3948364   7.5630337  69.0123892  35.3359437
   7.3131305  68.3499146  33.9981627   6.8969846  68.2162523  15.0020981
   7.8279537  68.0251789  15.1161993   6.4722514  67.7918386  15.7475543
  18.4279096  68.7555170  11.1144710  18.9939308  68.7516356  10.3425670
  18.7922680  69.4403791  11.6752136  18.2068098  78.9048052  34.1916299
  18.2636166  79.8515129  34.3210506  18.9441550  78.5504532  34.6886086
  85.8929584  32.0514410  80.0720167  85.9185050  32.5463788  79.2531026
  86.6639898  31.4854925  80.0339806  28.9781737  60.2527952  22.3183680
  29.3170047  61.1314964  22.4895644  28.0305552  60.3366566  22.4242806
 113.0050062  90.2715492  67.2762632 113.5941735  90.9493351  67.6074982
 112.4865963  90.0117493  68.0378294   8.0807590  92.5249004  44.2320728
   8.2790214  91.7638302  43.6864614   8.9037675  93.0120468  44.2718077
  64.9926853  89.1426563  21.6824436  64.4027281  89.7451687  21.2294912
  64.7686672  89.2386818  22.6080918  46.0906744  38.5206890   3.6111301
  46.5763855  38.1795168   4.3620744  45.5431080  37.7886319   3.3274120
  99.6172641  66.2501574  28.2501554  99.9037312  66.0052538  29.1300368
 100.3787588  66.0824060  27.6949835  40.0412581  19.8211877  90.5641455
  40.9384177  20.1452367  90.4845839  40.0862572  18.9145534  90.2604671
  40.0534678  50.2902699  39.0364766  40.9093332  50.3271008  38.6094284
  39.4248343  50.3060436  38.3148122  31.3356614  99.5215702  27.5905466
  31.1127853  99.1786003  28.4559560  32.2427344  99.2493916  27.4513698
  42.9001999  52.5987005  34.7167253  42.3683453  52.6124096  35.5124497
  42.5769424  53.3366442  34.1998339 103.0023788  75.9555197   8.6450195
 103.6336373  76.2777376   8.0016524 102.3485301  76.6517115   8.7084949
  35.4006147  39.9970627  31.7339993  36.0645175  40.3364038  31.1337376
  35.5580235  39.0531611  31.7564201  96.3714956  50.9086943  10.7748485
  96.7732094  50.2607918  11.3537073  96.7239319  51.7472839  11.0728228
  40.8053255  80.9365082  56.4184475  40.4702616  80.5586529  57.2315836
  41.4752007  80.3187275  56.1254549 111.4104316  41.0501306  89.0644881
 110.7543800  41.2583082  88.3992899 112.0393798  41.7699354  89.0141070
  96.2949763  81.8175125  56.7499924  96.4254652  81.0985279  57.3682594
  96.7960857  82.5447464  57.1191216   3.3903044  80.1017189  38.3569717
   3.3114055  79.7316742  39.2362189   4.0574887  80.7827091  38.4426975
  98.7197349   2.9371850  87.7910883  98.4255097   2.0487087  87.9917801
  99.6385834   2.9514425  88.0589483 102.4096714  58.9195061  36.9079518
 101.8850146  59.5834923  36.4606404 102.2709201  59.0919590  37.8392100
  15.1983654  51.6014862  26.8510795  15.5492437  52.0694160  26.0933471
  14.2485225  51.6460752  26.7413378  29.6009803  55.0635147  31.2055779
  29.6643448  55.8806181  31.7001128  30.4315615  55.0042391  30.7335043
  13.2457757  87.8278160  25.9378743  13.5793054  86.9490147  26.1187243
  12.3957765  87.8564835  26.3770914  26.1873889  80.5952549  56.4011192
  25.5535984  79.8799133  56.3478851  25.6558323  81.3746548  56.5629864
  43.9277840  69.4330788  25.1401234  43.3652258  68.8049936  25.5931926
  43.3842468  70.2150059  25.0432014 110.1786451  63.9577007  42.1339369
 110.1394434  63.3188963  41.4221621 109.7618671  64.7413826  41.7756510
  17.3135650 101.3008118  16.3782501  16.7152715 100.6475639  16.0155618
  17.4435866 101.9277382  15.6667089  91.8690370  45.1521492  82.1271515
  92.3440431  44.3816471  81.8158245  90.9762095  45.0296354  81.8045425
  34.7782779  90.9867859  55.9099770  35.0765276  90.0855255  55.7874584
  35.1300526  91.4600754  55.1559925 107.5813107  84.2028141  21.0299015
 107.8216784  83.4418011  20.5014086 107.3397307  83.8368797  21.8807626
  27.1709442  52.3663664   0.8090679  26.5122390  51.7081261   0.5875675
  27.0591569  53.0491209   0.1475707   9.3680102  63.0320454  24.5549059
   9.8077893  63.4702826  23.8263631   9.1796213  62.1527386  24.2269468
  25.2652955  75.2631187  29.3055701  25.2534509  76.1627960  29.6321821
  24.3492985  74.9865818  29.3321681  12.7315319  92.8197289  61.2124729
  13.5808015  93.2269955  61.3830566  12.9219365  91.8833447  61.1561775
  17.3145688  81.2790012  25.6997442  18.1607401  81.6513348  25.9479189
  16.6711235  81.9081211  26.0259628  32.0671654  45.2111435  44.9658442
  31.5743136  44.5784283  44.4433451  31.4974380  45.9789228  45.0122833
  -0.2513837  70.6605053  29.0246701   0.0053840  71.5815783  28.9807296
   0.4844118  70.1879120  28.6354494   9.7142392  80.2929020  45.4297400
   9.6849787  79.8592949  44.5768881   8.9534831  80.8738327  45.4292965
  94.1416071  69.6089029  47.1903467  93.5475109  69.1438818  47.7794456
  94.6040808  70.2274370  47.7558231   9.9000490  50.0259304  46.9295549
  10.1086211  50.7486773  46.3376427   8.9491755  49.9339342  46.8694878
  29.2086434  67.3889160  65.5014658  28.2700539  67.5706959  65.5487490
  29.6013808  67.9911804  66.1333418  49.1586542  83.9530563  22.9675269
  49.5309496  83.9179707  22.0863938  48.2775354  83.5920811  22.8698015
 109.4621493  42.8196621  47.3158884 108.7351476  42.2788286  47.0073414
 109.5216669  42.6294518  48.2521057   6.7248660  50.6653929  44.0334892
   7.0368588  49.8769951  43.5892820   7.3513192  51.3447237  43.7838936
 106.1775862  65.2049160  19.2957115 105.5284999  64.5121050  19.4179058
 107.0211111  64.7605038  19.3805337  34.7628379  76.1735964  18.4943831
  35.4026532  76.0243273  17.7982616  35.0951338  76.9378471  18.9652622
  47.1863651  60.9440947  14.2971289  46.9160652  60.9580517  13.3789921
  47.5660753  60.0743198  14.4218206  62.4042798   6.3147640  47.3195171
  62.5836421   6.9934654  46.6688013  61.4608384   6.1658573  47.2564793
  30.9444571  73.0323410  34.7828627  31.5030217  72.9943371  35.5592608
  30.6848097  72.1238136  34.6299052 110.5986209  49.5486832  36.9120765
 110.6126942  49.5364094  37.8690958 111.5148766  49.4392729  36.6576433
  22.5424600  68.0792904  57.9653454  21.8108702  67.9117393  57.3712635
  23.3200598  68.0204296  57.4102736  17.8367722  69.2520046  16.5832269
  17.4298537  68.3858919  16.6055989  18.5105288  69.1826868  15.9068561
   5.6059700  36.1646581  21.2259865   5.7811469  36.5184641  20.3539944
   6.2844473  35.5021691  21.3564014  61.9305325 101.9765186  46.8154383
  62.5248337 101.8219566  46.0811710  61.0873175 101.6357899  46.5169096
 108.9425681  24.1803043  82.4572563 108.2221363  23.7468164  81.9997681
 108.6729000  24.1881149  83.3756507   7.9001439  73.3890963  39.6096277
   8.1560522  72.4807167  39.4496536   7.9059994  73.4752464  40.5629253
  30.1854491  71.4936924  55.6974316  29.8287320  71.2549162  56.5529823
  31.0395908  71.0628223  55.6653404  42.4526644  67.7713633  45.6996822
  41.6796398  67.8583765  45.1419306  43.1653786  68.1447601  45.1811743
  50.6167078  46.8228722  32.6191330  49.7241735  46.6172171  32.3410702
  50.5798912  46.8044233  33.5754466  43.7600279  63.7377548  49.7067022
  44.5312262  63.2426357  49.9829960  44.0216017  64.1482973  48.8825274
   5.6926781  61.3177967  39.5277333   5.9482896  62.2165108  39.7355986
   6.0919958  60.7893038  40.2187252  32.1356153  74.7939920  48.7345076
  32.5656104  75.4729366  49.2544746  32.7357006  74.0490961  48.7699890
  50.0665283  87.8720474  63.5047913  49.7104740  87.6322269  62.6492596
  50.3962803  88.7627506  63.3858490 107.0531414  48.1882780  82.7289409
 107.5828860  47.5439565  82.2594226 107.6366184  48.9378660  82.8468877
  44.4083789  87.4174183  87.9596150  44.3871060  86.4638322  87.8792781
  43.5083577  87.6595395  88.1777233  32.2873759  60.8457708  41.5024710
  32.6653671  61.3940239  42.1900558  32.0767808  60.0218296  41.9417906
  79.0138769  90.2035332  14.5671678  79.4006968  90.5065918  15.3886056
  78.1837082  90.6759262  14.5047200  31.2201715  96.7859173  69.2264462
  31.2185764  97.6928806  68.9204216  31.3200021  96.2645626  68.4299183
  50.5812740  24.0129447  18.8984239  49.9297523  24.3911147  18.3078837
  50.8036518  23.1706023  18.5018897  63.2688951 105.9593105  30.1079392
  62.7651072 105.3611851  29.5559716  62.7347803 106.7524529  30.1513076
  52.5913763  81.6946411  44.1490364  52.0638800  82.3597622  43.7067747
  53.0857277  82.1808052  44.8089552 109.2925955  58.1611538  23.7106991
 109.2102219  57.2633505  24.0322518 109.1775899  58.7059259  24.4893050
  11.9517481  95.8549213  43.2116795  12.6994276  95.6483459  42.6508474
  11.9933844  96.8043232  43.3262825   3.5472998  58.7026644  32.9623079
   3.0884138  59.5402193  33.0267501   4.2386818  58.7569761  33.6220598
  28.1581855  65.9171247  21.8325591  28.6260414  66.3398504  21.1123896
  27.6114511  66.6102457  22.2025633  36.5887189  50.0626802  21.1991858
  35.6812119  49.7635221  21.2554455  36.9971323  49.4712210  20.5670428
   9.8156500  86.8490410  49.6393919  10.0947416  87.7640915  49.6073771
  10.2293682  86.4456177  48.8762999   6.4398319  71.3423347  46.9066095
   6.4178908  71.4591026  47.8564072   6.8271518  70.4761028  46.7806768
  36.5445900  86.4075089  77.8075314  36.1886692  87.0969582  77.2469807
  35.8032274  86.1296558  78.3455038 100.7789849 105.2998066  46.5415764
 101.7312597 105.3897858  46.5054369 100.5182026 105.8177185  47.3031521
   6.1848068  73.4882593  61.2553596   5.8068544  72.6177073  61.3799620
   5.4714662  74.0912533  61.4645767  28.6044168  77.0999146   9.6593344
  28.4930944  76.5125227  10.4068720  27.7719831  77.5682783   9.5967102
  30.7224059  49.8792839  40.8560705  31.4006567  50.0476074  40.2019501
  31.2056375  49.7234678  41.6675186  88.0484246  73.1920385  25.6171107
  87.4485467  73.6095142  26.2352467  88.5439037  73.9175177  25.2370930
  79.1119677  26.1648338  90.9052335  79.2216477  25.8080976  90.0237912
  78.4122801  26.8119543  90.8163625 106.3237195  79.3634748  31.6603422
 106.9633554  78.6516523  31.6805124 106.8347053  80.1501179  31.8509150
  34.1066313 100.3869057  77.1463203  33.4302497  99.8510933  77.5606203
  33.6290169 101.1250877  76.7678928  21.2194252 100.1601124  21.8528366
  22.1628237 100.0443745  21.9661188  21.1257172 100.5098820  20.9667706
  30.2420712  62.7230358   1.6013148  30.5974698  62.1117878   2.2465244
  30.2674341  62.2406006   0.7749712  18.7186193  74.1621017  20.9754419
  18.5889924  73.2671738  20.6615400  18.3349609  74.7131348  20.2932405
  20.7783651  53.1065559  41.9939184  20.0772047  53.5298014  42.4893665
  21.4993763  53.7358189  42.0139980   8.8333589  85.8364964  36.4146376
   9.0389973  86.2901592  37.2320342   9.2586529  84.9832916  36.5006948
  52.1578312  46.8160200  29.2251468  51.2476015  46.5622807  29.0724134
  52.2814894  46.7083025  30.1681948  36.7426610  67.6936197  29.2808366
  37.3272085  67.2241211  29.8759055  35.8627391  67.4781466  29.5899320
  49.7540092  73.9664936  67.7506304  49.5322895  74.5212746  67.0027733
  49.5267391  73.0808067  67.4675369  46.4813423  72.8204203  23.8619709
  46.5935183  73.6985779  23.4979773  46.5837622  72.2351885  23.1114769
 107.1589725  70.6143093  20.3789520 108.0873536  70.5953693  20.6112909
 107.1225612  70.2236748  19.5058489 104.8973779  91.8212032  25.9266710
 104.7557835  91.5872574  25.0093627 105.4618524  91.1268806  26.2665415
 109.3517636  73.1799555  58.5261917 109.9225862  73.6676216  59.1199732
 108.5034309  73.6177731  58.5960484  75.3639476  15.2646797  90.9135332
  75.3288285  15.0322311  91.8414153  76.1727270  14.8627822  90.5963818
  15.4581749  55.5026913  55.7631016  16.3655603  55.2767038  55.9675837
  15.0317395  54.6606922  55.6036615  21.1181688  96.1801147  56.3587141
  20.5094790  96.7523193  55.8914709  21.6636062  95.7981682  55.6710815
   4.2382297  54.4645882  30.9525490   4.1191342  53.5404825  31.1718178
   3.4763339  54.9012470  31.3334394  23.2529807  98.4172916  25.7254744
  23.8859439  98.1194782  26.3788438  23.4143400  97.8599167  24.9642038
   1.9330227  83.7268066  42.4984217   1.6215909  84.5417309  42.8922939
   2.0958833  83.1478214  43.2430553  84.8666333  70.3431892  15.1632845
  84.9188541  71.1580515  15.6627905  84.9546049  70.6160307  14.2500210
 109.3850334  53.6696959  27.1216249 109.9284874  53.4168434  26.3753319
 109.3894567  52.9012918  27.6923895  30.8826399  89.4462204  32.3005867
  31.7012119  89.8521042  32.5859475  30.6463623  89.9189758  31.5025234
  11.2744153  14.9453604   5.7302773  11.2001395  14.0588725   6.0836232
  12.0639396  14.9223101   5.1895821  36.8446279  84.8561859  46.6121292
  35.9972429  85.1783180  46.3048887  37.4678779  85.5335903  46.3496256
  10.2957582  73.4970570  25.5564547   9.4140148  73.2796144  25.2540016
  10.2021730  73.6162663  26.5015793  13.1089735  56.3959169  29.6477652
  13.6204123  56.4307356  28.8394022  13.7522030  56.2036467  30.3300548
  94.7800301  60.1065493  48.0361509  94.9909423  59.4144344  48.6628294
  93.8734172  59.9324799  47.7831936 111.8452020  19.3397200  26.2740064
 111.5522379  20.2305746  26.0822225 111.2619497  18.7801707  25.7612157
  51.4620495  61.8350554   5.2857667  52.0078945  61.0991287   5.0088251
  50.6884241  61.4265919   5.6742185  17.6830947  85.7584572   4.1628391
  17.9037428  85.9041882   5.0827897  18.4032202  86.1606979   3.6771896
  30.0327396  71.7144060  19.3647122  30.5207944  71.3922977  20.1225257
  30.6871653  72.1680784  18.8335454  91.4392970  23.4726493  84.5950359
  91.4578137  23.3903759  85.5485136  91.7652092  22.6312177  84.2756552
  68.0514956  90.0817204   9.4812703  67.7497005  89.2961979   9.9374598
  69.0064240  90.0314808   9.5239329 103.7847887 105.3490543  49.4971991
 104.2085431 106.2038803  49.5741892 103.3535759 105.2185535  50.3417444
  25.1314807  58.2678747  53.1830740  25.3416848  58.6605644  54.0303278
  24.1800094  58.1641960  53.1965971  16.6683054  83.0713463  22.3174477
  17.3967206  83.4577751  21.8313265  16.7768121  82.1274281  22.2013116
  79.4920800  15.1194351  87.0185185  79.1895328  16.0256259  87.0777482
  79.7647736  14.8992650  87.9092458  23.1500506  59.0482664  36.0257792
  22.5644851  59.7263432  35.6887960  22.8435540  58.2405996  35.6135130
  16.2016320  86.2652206  22.7915788  16.8555439  86.3339901  23.4872079
  16.6202188  86.6646385  22.0290303  98.3314024  53.5748720  38.4384084
  97.8355323  53.0723143  37.7920485  98.2299696  54.4858503  38.1626153
   8.0123001  74.5037889  21.9075775   7.4714309  75.2036238  22.2735333
   8.8799721  74.6496582  22.2845387  35.5475616  77.6022100  23.0394030
  35.2014446  78.2398653  23.6637688  35.0465679  77.7551889  22.2382569
  36.5570736  60.3256989   3.7944257  37.2283673  59.9713087   3.2113275
  36.8782592  61.1966133   4.0280500  20.3565788  39.1758728  35.1918983
  21.3081050  39.0954185  35.2578807  20.1290345  39.8550487  35.8268595
   0.5538868  42.6500909  89.2100093   1.1850595  42.6329343  89.9294252
  -0.0255729  43.3832567  89.4172022  20.3070998  85.3981686  37.0756078
  19.9315143  84.6138000  37.4755311  19.9599135  85.4018974  36.1835980
  96.3700567  50.8164406  23.1904078  96.0747825  51.2175798  22.3730159
  97.3247276  50.8766174  23.1555533  16.5022576  37.0567775  25.0413084
  15.7842994  36.5181208  24.7087216  16.3400006  37.9255867  24.6737766
  41.8717241  42.1209526  54.8263264  41.2712002  42.5866985  55.4082918
  41.7707253  42.5562239  53.9798212  10.4993117  78.5757113  40.9791422
  11.2619209  78.0693150  40.6994581   9.8492324  77.9159880  41.2207890
  20.3732610  49.1925764  26.9495630  19.5341277  49.6014881  27.1614075
  20.8228660  49.8374605  26.4034796 102.7589856  67.5321436  33.4550858
 102.2330414  68.3167028  33.6102724 102.1162866  66.8351173  33.3234501
  24.4736218  77.5739622  39.7219348  25.4058766  77.7838373  39.6664119
  24.1816998  77.5373363  38.8110709  27.4883986  49.8087263  49.8329449
  27.6575303  49.7357082  48.8936377  28.1766391  49.2839003  50.2417421
 106.8371676  60.9289408  40.9626961 106.7915897  60.1229382  40.4483843
 107.7482139  61.2119150  40.8842564  13.7321162  63.4980154  24.5155787
  13.2862103  63.9578629  25.2268720  13.1201112  63.5423660  23.7809253
  14.0113664 100.3851318  29.5334220  14.3057883  99.4864941  29.3851423
  14.6114945 100.9222317  29.0161180 101.4280055   1.9284503  75.7516647
 101.4753172   1.0049407  75.5044473 100.7117531   1.9703977  76.3852692
 106.3934992  68.0564690  43.9658356 105.7104318  68.4397602  44.5160532
 106.0171150  68.0509281  43.0857611  32.1269274  70.6417942  28.1528139
  32.6751041  70.0405788  27.6485562  31.2325287  70.4351377  27.8815579
  45.1886606  87.8385448   7.3208553  45.2356100  88.7130165   6.9344431
  44.2677927  87.7310085   7.5589150  22.2612166  85.1899147  14.6210182
  21.9210243  85.5261230  13.7918842  21.5136147  84.7502136  15.0259686
  93.3358811  72.8764105  24.3371415  93.0406283  72.2370720  23.6888313
  93.6009525  72.3486948  25.0904584  43.7906742  50.5347395  33.3815026
  43.6712551  51.2785292  33.9720488  44.6560621  50.1902723  33.6021328
  36.3057566  92.3185158  62.3610544  36.9473481  92.0380402  61.7084265
  35.4958296  91.8767166  62.1059799  44.5403194  73.8258982  28.3024979
  44.1336536  74.5456934  28.7849355  43.8074732  73.3729315  27.8853703
  33.9983273  78.4118319  46.9602013  33.2452273  78.4525013  47.5496197
  33.7742138  77.7250051  46.3322878  16.8185735  91.6684151   2.4169058
  16.9389749  92.5967884   2.2172534  16.8651843  91.2324333   1.5660349
  23.7272525  96.5534687  27.9924726  24.0624928  97.2851181  28.5106707
  22.7930522  96.5221214  28.1986809  52.0227942 105.9253662  74.7186399
  52.2249982 106.1531561  75.6260860  51.5589925 106.6900080  74.3774009
  22.3599005  63.8045025  37.7115393  22.6077223  63.0683136  37.1522141
  23.1000829  63.9111328  38.3090305   9.2286104 104.7235489  10.9943652
   9.6120280 103.8876629  11.2598968   9.5714432 104.8753071  10.1136458
  25.3206325  45.7846451  86.5038681  25.0850463  45.4248285  85.6487274
  25.2890134  45.0337362  87.0966339 112.4554963  61.6709614  28.3496761
 111.7674051  61.7179632  29.0134192 113.1269304  61.1114216  28.7399602
  46.8530130 101.9701862  21.0417867  46.5828800 101.1541462  20.6206656
  47.6717520 101.7506409  21.4864182 103.3225386  69.8024225  14.0646911
 102.5966094  70.2058458  13.5887647 103.2278846  68.8649464  13.8961160
  44.8102617  74.2984867  52.6035547  44.2280579  74.9611425  52.2318602
  45.6387615  74.7576809  52.7412796  56.7618928  37.8567808  91.3746402
  56.5387771  37.5312345  92.2466891  57.4517236  37.2680490  91.0684520
  42.0056295  63.5619593  31.8584967  41.5499592  62.7362680  32.0222831
  42.6042271  63.6562538  32.5994563  26.5716553  84.7008896  27.4440813
  26.4111757  83.8656902  27.0048428  27.4709463  84.6337986  27.7650285
  82.6580907   1.0357761  23.9479327  83.2128716   1.8095779  24.0463495
  82.4124242   1.0332965  23.0227971  44.4770861  62.7072001  13.5769880
  45.0754261  62.3491383  14.2327416  44.1406298  61.9393015  13.1150782
  45.1563644  95.7315445  35.1040030  45.1590586  96.1497784  35.9649920
  44.4545221  96.1728287  34.6255589   8.2702780  91.1410618  18.3758521
   8.1355900  91.2059402  17.4303997   7.6020151  91.7133808  18.7528157
  89.0021919  81.8044949  40.9708405  88.7862276  81.3697815  41.7958355
  89.6140145  82.4977589  41.2184000  18.5823834  90.5520248  34.1226077
  18.6196327  89.6001148  34.2159963  18.7776935  90.8863926  34.9979830
  27.4747348  51.1544657  24.0097380  26.8906212  50.6692791  24.5925236
  26.8879724  51.6789818  23.4649253  20.2242088  67.5575542  41.1167049
  20.0581598  68.4724855  41.3437653  20.8060670  67.6008892  40.3578949
 109.0238462  79.9842834  28.6718202 109.5788734  79.9333763  27.8936267
 109.6032856  79.7454691  29.3953204  24.6895671  84.5849991  18.8826668
  25.1412868  85.0494194  19.5872927  23.7860942  84.8975372  18.9305043
  93.9762972  95.7121563   9.6301121  94.1508137  96.6449070   9.7555518
  94.4788323  95.2795124  10.3204095  35.2669001  66.4223337  23.6247325
  36.0996985  66.8923855  23.6663604  35.3223348  65.7741928  24.3269229
  18.6471748  79.2323732  30.7605171  18.8678801  78.9734602  29.8658204
  19.3709123  78.8999557  31.2914920  24.8211884  68.3158350  40.9599161
  25.1888156  69.1552973  40.6835318  24.5666432  68.4545469  41.8721628
  27.3848391  92.0005894  54.8551702  27.5692368  91.9322205  53.9183903
  26.9252920  92.8350544  54.9485445 109.1342963  89.2114735  29.4060755
 109.1509612  89.0577984  30.3507090 110.0263016  89.0199280  29.1164780
   4.4966322  80.9018517  42.3733282   4.9235934  81.7333603  42.1671152
   4.2263672  80.9915447  43.2871866   8.4919280  74.7968531  33.2374692
   7.8906095  74.6495533  32.5074339   7.9277170  74.8272467  34.0101099
  -0.0096103  37.9420519  42.6765966  -0.5716760  38.4445381  43.2663584
   0.6725232  37.5828815  43.2439756  39.6507764  69.2056942  27.9388452
  39.2587256  68.3329725  27.9091454  40.4360199  69.1341066  27.3961639
  19.2367423  83.3307266  42.3573256  19.4360292  84.0154362  41.7188215
  18.6244321  83.7426090  42.9669666 102.9453514  84.4438553  26.8168139
 103.6060892  83.9895535  26.2940645 102.1897839  83.8562202  26.8110633
  45.9771967  86.9703674  26.4714551  45.3001738  87.4927998  26.9014931
  46.3368273  86.4229870  27.1695065  30.4997826  71.9503450   9.5188516
  31.1041665  71.3331842   9.1064608  30.3199911  72.5999165   8.8391751
  90.9966470   8.9550495  17.7444994  90.2525903   8.8808536  17.1469152
  90.6188203   9.2924499  18.5566807  23.5444474  64.8034048  29.3334198
  23.8437128  65.6702185  29.0590000  22.6986051  64.9634409  29.7519541
  43.5563561 104.9765032  91.5227276  44.4562784 105.1950138  91.2806011
  43.0333742 105.2435654  90.7668181  14.2562449  85.3195190  26.4629555
  14.6276641  84.7416306  25.7963800  13.6819005  84.7529411  26.9780684
 109.5951693  95.9318256  25.1558685 110.0471391  96.4236259  24.4702387
 108.6675490  96.1208057  25.0143147  34.7240710  75.2143574  53.1069756
  33.9435005  75.7683516  53.1129313  35.4414248  75.8089161  53.3263779
  17.8794038  59.8062515  21.1263990  17.8045583  60.6150627  21.6328049
  17.0407295  59.3636465  21.2566328 109.6071245  74.8512363  39.1723824
 109.6546994  75.7831860  38.9592099 108.7194200  74.7274017  39.5083547
  17.6886988  80.2759838  18.3062518  17.5418639  80.6163502  19.1887605
  16.8411756  80.3663063  17.8706181  22.7971292  54.0093803   9.6741700
  23.5223699  54.3564081   9.1547197  23.2204747  53.5380507  10.3917074
  39.3184829 103.5388756  53.9170980  38.9628625 104.4138432  54.0726709
  39.0094185 103.0192852  54.6592140  29.8560357  62.4130917  46.1262608
  28.9972067  62.7670765  46.3572121  29.8023129  62.2494030  45.1846886
  40.7218456  78.0483294  45.0046015  40.4721117  78.1114292  44.0827131
  40.0477266  77.4942064  45.3979778  24.8902965 103.4313202  40.4421806
  24.7517490 103.3120060  39.5026088  25.5193400 102.7501392  40.6799316
  55.4202366  92.5107384  47.1822453  55.7551479  91.6412067  46.9632006
  54.5909643  92.5743484  46.7084408  37.2566772 106.1296940  34.3035269
  36.3234878 106.3348293  34.3610072  37.6867461 106.9832230  34.2510128
  58.2496977  75.7546425  17.2335923  57.4288034  75.9155703  17.6988494
  58.0993509  74.9375725  16.7581725  25.7308388  69.2488384  37.3588085
  26.1691332  69.5370150  38.1594849  24.8947144  69.7147942  37.3624706
  38.2152987  96.6310883  49.3397999  38.8352013  96.1934757  48.7563229
  37.3575997  96.3078976  49.0638781  77.9153872  91.3656425  37.0564604
  78.1521654  91.6106224  36.1619496  78.5100842  91.8727875  37.6090670
  30.0406814  56.2715816   8.7754673  29.3570781  56.9402790   8.8174617
  30.1766014  56.0104847   9.6862835  54.5041943  88.9846039  42.2882843
  54.0481329  89.5511150  42.9106283  55.1955986  89.5370865  41.9236517
  60.8677197   4.6722888  15.6902587  61.6942597   4.6500015  15.2080047
  60.2385450   4.2479228  15.1069236   3.2079810  65.2414465  18.7283528
   2.7457705  66.0049057  19.0743601   3.0671245  65.2845192  17.7825546
  23.5606766  61.4725351  17.6680374  24.1486311  62.2190285  17.5527668
  22.8849149  61.5946960  17.0012140  40.5139828  72.8646803  44.0642262
  39.5988107  72.6520967  44.2472649  40.7557487  73.4903145  44.7471380
  29.1703343  87.3099041  28.4999347  29.4868231  86.5497684  28.0118155
  28.8899899  86.9534779  29.3429041  15.4829097  48.1732416  32.9592276
  15.4912627  47.3341990  32.4986029  16.3363731  48.2183409  33.3902717
  40.2206326 104.6003056  20.3069687  39.5683408 104.1269207  20.8233571
  40.5436134 105.2821445  20.8960390  97.2174023  56.0981750  21.9064760
  96.5993331  55.9260750  22.6168299  97.2936307  55.2617121  21.4474034
  55.3344679  65.4011869  56.5765858  55.3248739  65.0991726  57.4848366
  55.1286602  66.3343382  56.6322851 101.5683839  20.3475444  80.1513160
 100.7772157  19.9471347  79.7908235 101.8405483  20.9805410  79.4868791
  52.9055166  90.6413174  52.7166796  53.1531286  90.3603554  51.8357849
  53.1949615  89.9281502  53.2857609  65.4043961   1.4217758  64.5051575
  65.2270246   1.0074138  63.6607218  64.7127200   2.0765304  64.6006441
  18.9549065  97.6271629  55.3241968  18.2648885  97.8878880  55.9342194
  19.3153572  98.4536362  55.0028658  56.2828588  53.6763620  24.2418528
  56.5806580  52.7669334  24.2638159  57.0850277  54.1929817  24.3183780
  57.3661327  82.9642391  27.4226880  57.2499847  82.0514774  27.6865244
  58.3118677  83.1065273  27.4623394  32.9040337  57.5328398  41.3438225
  31.9497919  57.5707531  41.2788725  33.2076740  57.5748014  40.4370308
  35.9031630  64.2721987  61.6976404  36.7310357  64.6051788  61.3512611
  36.0894060  63.3625412  61.9301748 102.8913783  65.8906126  45.1671028
 102.2484933  66.5898418  45.0487280 102.4517594  65.2539492  45.7306862
  46.4944696  82.8670025  38.2278419  46.7467690  82.5366402  39.0900683
  45.7543182  83.4486389  38.4013748  32.3956776  99.6290874  10.3435898
  32.2608304  99.8991203  11.2519586  32.0082569 100.3336620   9.8242456
  40.3056192  61.4530516  32.0777249  40.3270102  60.5824089  31.6805434
  40.2296495  61.2859440  33.0171585  42.4418926  80.8794594  23.0249310
  43.0526924  81.6091824  23.1282234  42.0490980  81.0161018  22.1627998
  41.7639542  93.7318325  14.2966163  41.2181807  94.3524456  14.7795260
  41.3879108  93.7165546  13.4165072 110.0896378  62.1514130  60.5338049
 111.0361095  62.1769285  60.6744194 109.7152795  62.4075508  61.3767052
   0.4515383  76.0410786  41.3223124  -0.0861247  76.2314177  40.5535984
  -0.1584545  75.6570148  41.9520998   5.3723811  25.7003229  75.4220319
   6.0203313  26.0088508  74.7886300   5.4102563  26.3391178  76.1338866
  78.9410067   3.8074397  33.3792114  79.8291303   4.0704631  33.6206269
  78.9078904   2.8704833  33.5721970  45.7150251   7.4487018  18.4855556
  44.9612028   6.8632793  18.4130299  46.4646620   6.9050788  18.2431805
  27.4387145 105.2276611  27.1523380  27.9091954 105.0110722  27.9573035
  26.5280008 105.3320408  27.4279022  58.4701347  96.5122223  25.6445122
  59.3087387  96.5173244  25.1830459  57.8942919  97.0498276  25.1008081
  70.0209188  80.0207996  23.7713170  70.4171801  79.7295952  22.9500914
  70.7637596  80.1675415  24.3568826  45.8782196  89.0470600  21.4236665
  45.7732677  89.9904156  21.2999701  45.7320786  88.6738014  20.5544448
 104.9150226  45.5199068  82.7651245 105.3355310  46.1090295  82.1387506
 105.2598617  45.7896440  83.6163348  35.8119106  79.4961071   1.8783367
  34.8693204  79.6529913   1.9344017  35.9367537  79.0916729   1.0198040
  39.6118450  79.4948530  63.1653070  40.1324224  79.1520119  62.4388838
  39.6776938  80.4459000  63.0792475  24.6284628  49.1306925  38.4329915
  23.7541199  48.8217163  38.1957293  24.7503066  49.9260378  37.9145241
  13.0551064  80.8877945  38.2751060  12.9299057  80.5092525  39.1453147
  13.8547540  81.4081001  38.3530354  30.7870650  82.5159740  36.1950922
  30.9921932  83.2679939  35.6395578  31.0711479  81.7571545  35.6854677
  12.6683688  70.4328156   7.6547390  12.6068342  69.4983816   7.4565542
  13.1924427  70.7951546   6.9403946 110.1358510   9.2664050  42.2567320
 110.3213311   9.9452114  41.6078472 110.6602574   8.5166168  41.9755840
  47.9099798  76.2217951  21.5504456  48.6571360  75.8798122  21.0594893
  47.8147793  77.1236992  21.2442923  35.8312321 100.6346512  33.0823016
  35.6220388  99.7460461  33.3701253  35.0432086 101.1415577  33.2780075
  31.9883633  68.9235783  12.1639645  31.0877109  69.2472649  12.1471584
  32.1656346  68.7566137  13.0896699   0.8165918  60.3060913  58.5748053
   1.1499240  60.8221674  57.8407860   1.5665883  59.7848606  58.8612604
  41.3659430  86.3524818  20.7855749  41.9352055  85.9155560  21.4190292
  41.3752270  85.7786465  20.0195050   5.0414943  44.9751489  90.1187766
   5.0954436  45.0912111  89.1701714   4.6341228  45.7811944  90.4359056
  34.3640709  77.4644756  30.4732299  34.4937706  78.2254648  29.9072742
  35.0853848  76.8755198  30.2517080  19.7351384  61.6539621  50.2111101
  20.5132222  62.1875477  50.0495529  19.3448853  61.5313530  49.3457174
  29.4401979  57.5196362  49.9470186  28.7504601  58.1202555  49.6646166
  30.2504516  57.9203606  49.6321487  22.0458841  53.2385557  85.4446060
  22.3812579  54.0219800  85.0087232  21.8864488  52.6183431  84.7331661
  11.0863149  93.8030720  41.0495138  11.0645247  94.4268322  41.7752409
  11.3340974  92.9722309  41.4551592 100.7733510  53.3892584  50.0329828
 100.4054783  54.1001701  49.5080996 100.5506776  52.5940990  49.5488644
  61.8389654  59.7843218  26.3796186  61.1886072  59.4749165  27.0101190
  61.5655041  59.4014502  25.5460382  32.0038557  75.6879711  10.9726179
  32.1493411  75.4833174  10.0489390  31.8238926  74.8407793  11.3801825
 108.6941311   9.7966545  83.7909419 108.9542482   8.8786619  83.7143761
 108.7120602   9.9730222  84.7315824  17.1355307  52.1441698  36.3830638
  16.9818366  52.2293711  35.4421329  18.0887115  52.1340656  36.4701056
  46.6039467  53.0782843  26.6730475  47.2177267  52.7056980  27.3060465
  45.9017372  53.4471226  27.2088575  39.9200797  69.5061541  37.6771140
  40.8746386  69.5752811  37.6607490  39.7499037  68.6025810  37.9432511
  20.1259017  58.4333086  57.1246529  20.7265949  58.9762306  57.6351738
  19.3505788  58.9816761  57.0046711  96.6692874  27.5857561  88.1581205
  97.4092410  27.0036428  88.3309067  95.9353468  26.9957178  87.9865861
 111.9276118  95.2527142  81.3639164 112.2234263  95.9974766  80.8404160
 111.3547018  94.7596455  80.7766438  84.2269705  89.4307804   9.2143792
  83.6358403  89.8055363   9.8673379  85.0737260  89.8386192   9.3957722
   8.9276981  75.6488912  79.1917348   7.9892730  75.5295293  79.3378103
   9.1176128  76.5156953  79.5506418   7.3244995  71.3767385  31.9387031
   7.0959663  71.6357374  32.8314066   6.6580617  70.7331896  31.6979909
  41.2855911 105.0429058  26.5378046  41.7245626 105.8805943  26.3901353
  40.6329918 105.2301502  27.2125530  22.6018381  65.5336380  22.1967673
  21.9049168  66.1451149  21.9588089  22.6695299  65.6063414  23.1487989
  18.5020077  65.3153706  30.9414291  17.8456628  65.1693535  31.6226935
  18.5856605  64.4681358  30.5039096  78.4916258 102.3806763  13.9707410
  78.1199360 101.5332794  13.7258005  78.1747198 102.9844093  13.2989490
   6.0796267  76.2282896  23.1366324   6.3237578  76.9457293  23.7213659
   5.1599169  76.3918829  22.9278207  38.1240320  92.3384094  17.5854433
  37.9915762  92.0126247  16.6951919  37.2797561  92.7174854  17.8298593
 101.2844516   8.8731193  30.9816527 100.3605367   9.1147613  31.0466766
 101.3470841   8.3847141  30.1608181  49.2484093  90.6250858  34.1390872
  50.0481892  90.1270866  33.9700150  49.4477463  91.5096664  33.8324904
  36.9493747  60.8147573  24.0065980  36.3837957  60.8149576  23.2343602
  37.6338410  60.1776648  23.8020134   4.3973181  67.9358292  75.2810526
   3.6341259  67.5263309  75.6885767   4.9776572  68.1430340  76.0135174
  41.1061096  90.8874989  20.0741172  41.2568712  91.2413216  19.1975820
  41.7910767  90.2285671  20.1874995  46.4290094  96.9551754  58.3528423
  45.5874348  96.6083050  58.0567646  47.0608044  96.6312027  57.7108860
  51.4536524  90.9162903  17.1293390  51.8887377  90.1289463  17.4564648
  50.6929636  91.0243130  17.7002287  73.8455177  15.5315971  29.1708946
  73.5931493  15.9427261  29.9976444  74.0300871  14.6213817  29.4025636
 107.0260130  62.3870897  21.9075346 106.8594085  63.2446814  22.2987032
 107.9073052  62.4582434  21.5407991  91.0902712  30.9062402  80.5829525
  90.3824005  30.6531446  79.9904180  91.4967094  30.0780122  80.8380747
  48.5655308 104.9661732  13.0880427  49.0679026 105.7731342  12.9754829
  47.7420330 105.2500916  13.4848702  30.5224371  91.6009712  61.7982244
  30.4673147  91.2295151  62.6786900  31.3573027  92.0690727  61.7875910
 103.2429491  92.5461388  33.7463069 102.6425980  92.8192616  33.0526114
 103.9209901  93.2217121  33.7559843  24.3942523  58.4451818  30.3389215
  24.7703958  59.3253708  30.3354573  23.9819551  58.3575201  29.4795275
  92.7617357  11.3577383  86.8237651  92.4496744  11.2699287  87.7243978
  93.2445631  12.1842163  86.8170858  16.3510633 103.8898087  19.1756451
  15.7216549 103.1709194  19.2328835  15.8620954 104.6043205  18.7674701
  40.5189896  96.8367863  23.2190704  40.7074499  97.7197933  22.9012632
  40.3442669  96.9506645  24.1532731  65.1271343  60.2876139   7.0771086
  64.9209881  61.2166166   6.9737029  64.5919418  59.8484945   6.4160675
  74.1414619   4.0745258   8.7606150  74.0497018   4.9419593   8.3664411
  73.2570577   3.8470458   9.0475190  42.5588846  75.4288435  10.4118299
  42.2115564  74.9120235  11.1388028  41.7839146  75.8001471   9.9901766
  57.3159313  79.0475082  39.8308134  56.6175699  79.4485474  40.3482056
  57.5615215  78.2655764  40.3252840  98.0332600  73.7635899  57.2370291
  98.9480709  74.0362692  57.1663237  97.9094909  73.5794973  58.1681681
  57.0035637  14.6912479  28.0786967  57.1414078  15.2071762  28.8730812
  57.8775955  14.5961189  27.7002120  28.8656354  92.8696918  39.7631574
  29.7067070  93.3027077  39.6171379  29.0757322  92.1198845  40.3198385
  16.2363064  67.1364403  16.4293528  16.3916337  66.1921215  16.4101791
  16.2688208  67.4032211  15.5106556  61.2421370  76.7472458  52.3640680
  61.6133595  77.3579693  51.7273283  60.7783794  77.3049498  52.9886675
  34.7444723   2.0689201  42.6388741  35.5221082   1.7924499  42.1540260
  35.0464038   2.1630287  43.5423183  82.7818299   2.3553180   7.5552243
  83.4203721   1.6422653   7.5483966  83.0492593   2.9232406   6.8326038
 104.4247053  55.7648866  86.7205251 103.5938141  55.4490201  87.0756036
 105.0885532  55.4072206  87.3101133  52.8699649   7.4952506  20.9476113
  52.0942629   7.4411201  21.5058112  52.6427973   8.1470107  20.2844119
  22.8730893  92.3389339  44.9468184  22.1040606  91.8257427  44.6988964
  23.6156201  91.8306160  44.6204853  79.9808074  20.5310153  62.5152969
  79.6349717  21.3851833  62.7742052  80.5155707  20.2536582  63.2591534
  44.8827791  83.1988811  34.4659448  45.1961040  82.3568344  34.1357613
  45.6678391  83.7444019  34.5140529   0.7428168  24.6809976  78.7060738
   0.4491161  24.4531553  79.5881510   0.3826522  23.9916055  78.1481719
  41.7994642  65.5094290  55.7878065  41.5736198  66.4341211  55.8886671
  42.5204706  65.3706121  56.4019012  59.7292257   5.4831504  31.4455891
  58.8960672   5.6149673  30.9931445  59.7134782   6.1141872  32.1651530
  73.3330155   3.3704852  49.4848490  73.6796523   2.4892616  49.3450975
  72.5659610   3.4193897  48.9143515  40.0454643   8.1724071  29.1764617
  39.8605067   8.5771751  30.0239229  39.8956927   7.2378921  29.3195915
   7.1227711  76.6176319  59.4195747   7.1474367  75.9785032  60.1317120
   6.7725688  76.1312389  58.6732435  42.2342587  77.3753452  37.9339099
  43.1079960  77.0262861  38.1098866  42.1545172  78.1279802  38.5199308
  85.4308272  29.8313140  10.8281314  86.3538552  29.6663570  10.6356800
  85.2314568  30.6452560  10.3655422  74.5610453  18.5361385  48.9211226
  73.8195039  19.1370677  48.9934921  75.2590514  19.0628528  48.5317802
  41.7774725  91.1019230  46.6049910  41.6799307  90.3399754  47.1760845
  42.0815802  90.7400322  45.7726526  54.9605560 105.9986401  41.3411283
  54.9828434 105.0545216  41.4972353  55.6995153 106.3419724  41.8434238
  19.2049265  90.8377266  47.1150398  18.3773458  91.3087368  47.2124767
  18.9590824  89.9130821  47.1437693  27.9485583  90.1755333  32.9431534
  27.7600408  90.2714729  32.0096183  28.9040422  90.1933098  32.9976153
 107.2437207  67.3950624  35.1868272 106.9258420  68.2888985  35.3142691
 106.9741236  67.1696377  34.2964697  25.6075025  97.8960228  57.3223495
  25.7000995  98.0242157  56.3782978  26.4439344  98.1857681  57.6865816
  27.4768925  83.4275723  58.3951807  27.8649688  82.5529099  58.4195137
  28.1355381  83.9931297  58.7983656  57.5748134   5.3508663  27.3102212
  57.9617930   6.0697746  26.8105650  56.6456974   5.3728675  27.0811105
  69.9773550  77.7120113  63.2287693  69.6113777  78.5189009  63.5910130
  69.9843359  77.1004725  63.9651108 100.1960324  46.5215158  17.7900004
 100.0730179  46.9986343  16.9693565  99.4187807  45.9677601  17.8639245
  79.0829277  58.0772066  51.1135435  79.1214657  57.4328470  50.4067564
  78.3644962  57.7784824  51.6710806  15.7308865 101.5600777  61.2854576
  15.3575945 102.0299435  60.5397224  16.6276181 101.3593102  61.0175085
  65.3981278  81.5518205  89.4873780  65.4487846  82.4039381  89.0542928
  65.9737477  80.9866731  88.9721129  58.8951397  98.5568619  34.4591665
  59.4538116  99.0589428  33.8658476  58.0643654  99.0322495  34.4656014
  63.5727549  86.0893631  28.2221842  63.0589199  85.2932835  28.3580542
  63.9564037  85.9811878  27.3519301  50.9208918  85.2741051  64.8721266
  50.1385880  85.0627899  65.3816175  50.9466982  86.2308598  64.8585844
  80.4087878  10.0072860  36.9315076  81.1957885  10.2557086  37.4164367
  80.6846953   9.9994659  36.0149693  47.3668575  68.7672806  30.3320241
  48.1127691  68.6951065  29.7365093  46.8060207  69.4329691  29.9338436
  18.2425678  81.6900349  34.4545269  18.5633218  82.4957752  34.8596573
  17.3589349  81.5806007  34.8058772  26.1474322  84.0843599  90.6800227
  26.4024114  83.1775968  90.5097510  25.5741500  84.0323751  91.4447949
  10.6336927  83.9829445  18.1730783  11.2678754  84.4719505  17.6487625
  10.1629543  84.6542263  18.6670506  42.5938034  68.8023901  32.8960323
  41.6894960  69.0857220  33.0308700  42.6075315  67.8938293  33.1969666
  37.3723459  93.6557484  46.2046051  38.1361198  94.1250896  46.5401697
  37.5147200  92.7467728  46.4686680  56.7959023  96.3574982  43.2525826
  57.2962093  96.8340397  43.9150190  56.1553907  95.8524895  43.7535286
  40.8901119  91.2957382  15.7319129  41.1662531  92.0146847  15.1634967
  41.4786530  91.3462830  16.4851010  56.5513934  19.0737628  73.2398605
  56.9652153  19.0185356  74.1012144  55.6391312  18.8297843  73.3963346
  41.0527039  69.9761534  41.7061138  41.0754251  69.0744066  41.3858509
  40.9895182  69.8909378  42.6574183  61.5272999  92.6566219  49.9656010
  62.1424866  92.8970623  50.6583977  61.1706734  93.4912872  49.6616793
  13.9564669  74.6395159  37.8565431  14.6524191  74.4420958  38.4833646
  13.1473744  74.5438528  38.3589840   5.6332338  89.9610138  25.1563168
   6.3761568  90.5380917  24.9794745   5.5775899  89.9280262  26.1113286
  51.3952780  87.0568848  26.3610506  51.7594385  86.4236450  25.7424903
  51.2575531  86.5550041  27.1644020  41.8743658 103.5160065  55.0543404
  41.0513353 103.6830235  54.5950365  42.2580099 104.3836880  55.1815510
  28.8855982  89.6330357  45.2961969  27.9539418  89.5770741  45.0837898
  28.9254928  90.2302074  46.0432148 104.5463658   6.1280918  39.8834634
 105.1532889   6.6004848  40.4533100 104.8164225   6.3658142  38.9964509
  12.8040838  96.0190010  51.9721460  12.4773097  96.1176109  51.0778761
  12.0221019  96.0791588  52.5208902  15.1500523  69.1843224  18.4951043
  15.4675841  68.9377785  19.3637943  15.7461953  68.7450075  17.8885996
  35.9186196  42.1625614  56.6583204  35.1040816  42.3723698  56.2014389
  35.9344459  41.2061071  56.6926813  31.9840503  82.6458454  56.1465073
  32.0526147  83.2091904  55.3756857  31.5072203  83.1735134  56.7871571
  30.3822732  86.3463497  58.9613152  29.5755339  86.2459183  59.4666052
  30.9041595  86.9709969  59.4649839  46.3667297  93.1115437  10.7891202
  46.4936304  92.8034306  11.6864455  46.0765457  94.0185261  10.8860981
  26.6704869  87.5363445  22.4700475  25.7911015  87.5116444  22.8472757
  27.2465062  87.2733784  23.1878781  32.1761537  65.3530455  38.7361526
  32.7576089  65.4676676  37.9844856  31.3400674  65.7213163  38.4505558
  47.6804161  98.4455585  35.6180763  47.8731918  97.5616646  35.9308100
  47.9972553  99.0205097  36.3146949  41.7477655  51.7158794  11.2748504
  40.8101082  51.8764067  11.3809752  42.0405674  51.4266777  12.1390605
  62.7177191  94.0697384  41.9656897  62.9404640  94.9795246  42.1629143
  62.7547550  94.0156937  41.0107374  25.7541513  73.6924887  21.4968371
  26.2494802  72.9942083  21.0687232  25.7820797  74.4209433  20.8765054
  21.9171096  37.3537731  36.7416334  21.8006957  36.4606952  36.4174533
  22.6656402  37.6914405  36.2497878  32.8388739  66.7737341  71.6271400
  33.4738755  67.2531033  72.1593094  33.3361220  66.0416126  71.2624836
  19.8073685  72.7325821  24.4070315  19.2328656  72.7337933  25.1726532
  19.4819272  73.4491968  23.8622522  14.9862742 104.2874336   7.0353085
  14.0866387 104.5867634   6.9038349  15.5215383 105.0683880   6.8945187
  53.0457878  51.0050106  18.7041485  52.1177244  51.0469580  18.4735727
  53.3537388  51.9077015  18.6231768  45.3882408  92.9340458  19.0222788
  45.5587578  92.9365635  19.9641645  44.5643234  93.4118176  18.9267540
  39.8551607  72.9915619  30.9715199  39.2039943  73.5372114  30.5305266
  39.7972298  73.2464647  31.8923354  62.9141760  68.6210489   9.6546710
  63.3199167  69.1967869  10.3028452  62.9458332  67.7514839  10.0535357
  54.7790909  83.2181168  58.9695692  55.7018614  83.3475208  58.7505198
  54.7335625  82.3183060  59.2928410  47.6210308 100.5173302   4.4668368
  47.2612715  99.6318150   4.4151393  47.1754360 100.9135437   5.2156281
   9.6386302  60.2329826   4.7015920   9.5708996  60.4953289   3.7835407
   9.4652355  59.2916393   4.6951070  52.5454378  79.6504688  35.6229854
  51.9812250  80.3624630  35.3214025  53.1877613  80.0775433  36.1897779
  71.0988951  87.1124268  18.6670709  70.4986811  87.6779556  19.1530252
  70.5747986  86.7750168  17.9406321  75.8324480  55.0970078  38.3800888
  76.7236948  55.2018690  38.0470514  75.2936029  55.6280136  37.7936530
  39.8384643 102.7346897  13.2056606  39.0220165 102.3301506  13.4989059
  40.4966640 102.0473099  13.3081412  32.7005744  67.2092962  56.0507917
  33.6002946  67.2810841  55.7320738  32.1760345  67.0809269  55.2604675
  56.9145966  89.7135830  40.9594631  57.4581480  90.0541401  41.6699600
  57.5226688  89.2223263  40.4070663  39.5571160  50.1963472  36.2349820
  38.7760854  50.2440643  35.6836677  40.1446056  49.6028376  35.7671785
  87.8121111  29.8682897  83.0311865  87.0385406  29.9269216  82.4704886
  88.0549858  28.9427011  83.0082071  35.7352376  78.9042568  19.5978069
  36.0569000  79.4008493  18.8453698  36.4235115  78.9952326  20.2567720
   9.2519695 102.2756290  29.3937302   9.7000176 103.1175709  29.3124366
   9.8857474 101.6349125  29.0711689  73.6797167   3.6386966  35.1448059
  73.3397866   3.7679576  36.0302281  74.6305037   3.6883640  35.2436519
  15.5136454  85.5827999  47.3591042  16.3073027  85.0879860  47.5628233
  15.5303812  86.3228226  47.9659843  43.9582300  91.8270683   6.9923300
  44.1444349  91.8755054   7.9299939  44.6917200  91.3317776   6.6277552
  50.0332832  72.5461912  52.5933552  49.8330784  73.1616831  51.8881464
  49.5583487  72.8874445  53.3511209  40.1915741  58.6850548  42.4483776
  39.9443722  57.7620363  42.3921490  40.7074308  58.7462997  43.2523537
   2.0249366  57.2487562  79.0765190   1.7991590  56.3187711  79.0961445
   2.8699969  57.2995393  79.5231998  13.2045329  53.7703133  17.8441584
  13.0249894  53.4650135  18.7334204  13.7201715  54.5677662  17.9642367
 109.6585010  95.7689190  19.7062910 109.2836799  94.9002457  19.8517013
 108.9965449  96.3743591  20.0401950   5.6127929  13.3524196  88.0540279
   5.3209876  13.7964551  87.2578395   5.1595258  13.8090341  88.7627504
  51.8290329  88.8604259  28.8958120  51.3660717  89.6216297  28.5458636
  51.2278795  88.1289482  28.7551332  40.1704311  77.1124601  29.9674249
  39.7744346  76.8654108  29.1317296  40.4426575  78.0217886  29.8439527
 112.1914897  86.1893559  31.4071512 112.4941248  85.2813625  31.4210057
 111.2948056  86.1480522  31.7395425  56.7873573  68.1483793  58.0765009
  57.2554779  67.5759125  57.4687338  56.8578434  69.0199375  57.6870728
 110.2465282  93.6242485  23.4296489 110.3668182  94.2710495  24.1249323
 111.0631123  93.1248665  23.4231877  24.2583442  80.5569744  28.4310627
  24.2611575  79.7197104  27.9671550  25.0986624  80.9573078  28.2078290
  33.2868290  83.7080574   8.4247959  34.1637158  84.0793037   8.5221571
  32.9504967  83.6503983   9.3191040  51.1730016   6.1993789   5.0147563
  51.6434563   6.8951797   4.5556614  50.8076084   6.6277122   5.7888705
  38.8367128  52.4648809   9.4353992  39.5589733  53.0079365   9.1197097
  38.5976887  51.9233370   8.6831838  21.3787508  85.9506035  42.4487114
  20.5998802  86.2615967  41.9873285  21.5249157  86.5999889  43.1365824
  29.5876169  91.2486744  42.1513605  29.4625854  90.3930473  41.7408609
  28.8283896  91.3523579  42.7249908  29.8295069  76.0073280  71.0033607
  29.3964005  75.4267740  70.3775740  30.7642913  75.8743763  70.8460951
   2.8185007  55.7958221   1.7832956   3.1039947  56.1239243   0.9306087
   2.0263554  55.2931118   1.5935053  75.2806235   1.4227390  45.8485031
  75.5479289   2.2065162  45.3684282  76.0148812   0.8172225  45.7463074
  58.1098747  97.4168205  21.0503793  58.5189486  98.2125950  20.7103324
  57.2810698  97.3520279  20.5759168  64.0742016  96.2700462  21.8590498
  63.9113426  95.3501129  21.6506743  64.6316910  96.2444210  22.6367235
  17.1881437  53.3811092  64.3042183  16.5737784  53.7970304  63.6994076
  17.0284140  53.8137007  65.1430178  57.7323914 103.6801529  42.2756433
  58.0647373 103.1197643  42.9768896  56.7817068 103.5763550  42.3163271
  30.3759837  93.0766010  51.5476990  29.9798584  92.2055054  51.5252209
  30.7492518  93.1473827  52.4262714  88.6529350  96.6495991  30.1870799
  89.5399094  97.0094776  30.1843786  88.6923027  95.9201813  30.8056450
  50.2835155  39.6103286   8.2541287  50.9459425  40.3007125   8.2823032
  49.4692434  40.0495338   8.4996766  85.8281518   4.3972587  17.1443403
  86.1426879   3.5391998  16.8596888  85.5867434   4.8449516  16.3334608
  82.6773597   6.1183547  20.0579143  82.8122426   5.5088043  20.7835102
  81.8594457   6.5674781  20.2712917  42.5162839  40.3668802  85.7477010
  42.0068359  41.1723917  85.6591618  41.8657970  39.6922891  85.9426952
  12.3910749  96.3592339  34.8270559  11.5684748  96.4289951  34.3426037
  12.9796469  96.9743252  34.3894696  31.8331599  86.5227509   2.3166609
  31.3267422  87.0217419   2.9575846  31.3478446  85.7042885   2.2127107
  41.9341516  86.1980438   5.2815253  41.8225670  85.2841282   5.0197279
  42.8025246  86.2278366   5.6831110  47.9531860  82.1412373  63.4606647
  47.7148628  81.8840981  62.5699806  47.5053120  81.5073776  64.0208912
  73.9419628  36.3736820  26.2177920  73.1112433  35.9828472  25.9468913
  73.6915375  37.0788478  26.8146706  52.3810911  96.1703205  53.8565302
  52.5473118  96.0034084  52.9287672  52.9582357  96.9019032  54.0754318
  39.7161317  87.8819275  22.2205949  40.1692772  87.1321583  21.8349195
  40.3778362  88.3069420  22.7662492  67.6928974  12.7604293  14.6073365
  67.5320435  13.3569431  13.8762236  68.6379767  12.8077793  14.7516179
  38.3456063 100.6230927  34.7621536  37.8399301  99.9008656  35.1348639
  37.6951599 101.1662292  34.3170214  46.6114664  81.5662289   5.6724262
  46.6527605  81.5804863   4.7162235  45.8358335  81.0415840   5.8708650
  42.7353430  66.1850500  37.8068018  43.3033228  66.4975071  37.1025276
  42.5849676  65.2622652  37.6016545  36.0757279  88.3989143  41.4729309
  36.0071993  89.0796375  42.1423721  35.9364343  88.8610172  40.6463146
  47.3489189  70.5016518  33.9870191  46.9282675  70.6154871  33.1347728
  47.7491522  71.3512659  34.1719651  72.8479195  63.8468647  31.6263938
  72.1693325  63.7080240  30.9657359  73.0536461  64.7797489  31.5660501
  42.9771709  99.4516850  25.1617575  42.5441456  98.7087917  25.5822635
  42.7066517 100.2105522  25.6786489  68.7327433  85.6738186  56.3265038
  69.0311766  84.9058819  55.8392191  68.9829683  86.4174843  55.7782555
  23.8682365 100.7879543  12.2578681  23.4605479 101.6377258  12.4249113
  23.2981038 100.1579857  12.6986861 107.1417449   5.3582923  80.8660341
 107.3620222   5.8404272  81.6630662 106.3168905   5.7450931  80.5723775
  36.6179824 101.9838619   1.2228457  36.3356876 102.4347115   2.0186332
  36.1340356 102.4152946   0.5186516  47.6285458  77.5762272  72.0315027
  48.3370352  78.0460215  71.5915394  47.5975657  76.7253542  71.5941334
  64.2311287 105.1444626  47.0744562  64.7726440 104.5882416  46.5144539
  63.5982656 104.5439816  47.4683189   5.3755409  86.4768124  44.6294308
   6.1487770  85.9219933  44.7319889   5.0736696  86.6346741  45.5239582
  58.4581709  90.5516911  22.7236223  58.8950443  91.3990784  22.6381159
  59.0257931  90.0473118  23.3064103  64.5383024  72.8412342  15.6584680
  65.1333475  72.4612379  15.0121272  64.7532701  73.7739706  15.6627059
  44.7435617  65.0423098  47.2971821  44.5846462  64.7745228  46.3920450
  45.4574442  64.4770908  47.5923538  63.9690781  88.0967617  54.2510557
  63.0985308  87.7044964  54.3182087  63.9612675  88.5546589  53.4105206
  53.2884932  99.0969563  69.6935129  52.6140976  98.5626602  70.1129818
  53.2976484  98.8000870  68.7835550  86.8169356  21.8780136   6.9291991
  85.9872771  22.0629405   7.3693079  86.8829633  20.9230995   6.9339967
   2.4277200  93.6560440  20.7938647   2.1010375  92.8015614  20.5121398
   3.1911102  93.4541225  21.3348770   2.0672780  95.6112480  16.5706718
   2.4042292  95.0321102  15.8870852   2.7035052  95.5376339  17.2820282
  46.5543003  39.9083423  37.9420257  47.4968154  39.7517871  38.0002165
  46.4518566  40.8356189  38.1562829  31.0551047 102.2750854  33.2412100
  30.4541564 102.8911686  33.6601782  31.6683006 102.0298862  33.9341021
  77.5632931   5.5086517  31.7692804  77.9761220   4.7062969  32.0886874
  76.6253091   5.3185748  31.7863655  33.9828849  90.7116318  61.7998362
  34.1142154  90.0000858  62.4264812  33.7946534  90.2698612  60.9718037
  83.8577414  24.7210788  48.7933683  84.7118045  25.0984287  48.5826159
  83.2528210  25.1411628  48.1819534  92.8880740   3.8444995  12.6782453
  93.8010455   3.7177371  12.4200797  92.9121257   4.5802497  13.2900751
  48.2757378  98.1456089  23.1681228  48.0834341  97.2580147  22.8657627
  47.4192190  98.5684490  23.2298613  33.8204026  68.1129074  44.4631815
  34.7122979  67.8198147  44.6498632  33.7276101  68.9274597  44.9572706
  53.5563993  83.1031895  39.0156651  54.2275667  83.1543732  39.6962142
  53.9206982  83.5987854  38.2822418  41.9498348  96.0686588  21.0570407
  41.5931416  96.6539383  20.3888774  41.5135098  96.3349247  21.8663311
  15.5117357  73.3013105  39.9084783  15.5212021  72.4336100  39.5044518
  15.0712085  73.1697941  40.7480431  96.2332631  22.0261096  26.4943314
  95.8770753  21.7067623  25.6652474  96.9216729  21.3992595  26.7165565
  56.2747622  79.4455481  35.6370568  55.8263636  78.6252689  35.4313469
  55.6685019  79.9121809  36.2123275  88.6422540  10.1578330  32.4385524
  89.1365863   9.3537235  32.2795868  89.2047263  10.8553028  32.1018124
  29.9941635  90.7401276  12.3432994  29.7158670  89.9585342  11.8659031
  30.6586719  90.4231930  12.9550326  66.1920452  71.7897415  13.9771259
  66.5610361  70.9858227  13.6113489  66.7653036  72.4849653  13.6542141
  66.2211704  85.3464603  25.4536653  66.0990095  84.6622276  26.1117887
  67.1217537  85.2297115  25.1510930  11.6391444  92.7097893  11.9727147
  10.8587074  93.1619740  12.2931445  12.0737660  93.3512020  11.4106405
  29.4695425 104.9758720  39.1537833  29.8805904 104.7275829  39.9818087
  28.5550809 105.1439381  39.3812609  70.9645820  24.3070793  18.0068243
  70.8099867  23.3874320  17.7909875  70.2798820  24.5228767  18.6399508
  41.6083908 101.6225052  31.5269542  42.2767544 100.9414959  31.6027832
  41.0509062 101.3316631  30.8052564  76.3300253  36.6032981  30.6049418
  76.0835195  36.2600040  29.7460961  77.2606350  36.3951873  30.6879616
  17.5493407  67.2290277  40.8833122  18.4881151  67.3813868  40.7750511
  17.2915733  67.8170395  41.5932655  37.7018976  87.3948288  10.3275216
  36.9018602  87.7246475   9.9183840  38.2199001  87.0525169   9.5990115
  75.7756353   7.2445392  52.2356987  76.0722662   8.1511497  52.1562433
  76.2155915   6.9164466  53.0199337  27.4241781  86.2766933  44.1546679
  27.4585176  85.8937073  45.0312376  26.7145681  85.8074665  43.7159061
  28.4720421  64.7922373  43.2511663  28.1532478  64.5252609  44.1133308
  27.8413892  65.4487419  42.9553556  34.3155289  96.1122513  36.8290067
  34.5119023  96.9141006  37.3134637  34.3713355  95.4167557  37.4843025
  46.5756702  94.2512798  55.8993483  45.8434248  94.2873859  56.5147734
  47.2701025  94.7553539  56.3235044  59.2842484  16.3438129  45.2673769
  58.9175773  15.8837890  44.5122814  60.2315427  16.3017463  45.1366138
 112.9740573  11.0859775   9.9842995 113.5638524  11.6830158   9.5239449
 112.1024180  11.3135814   9.6607649  19.7225595  95.1777458  20.6213737
  19.8272467  96.0558033  20.9878397  20.5913067  94.7825623  20.6944633
  53.4203005  88.7127018  24.1872120  52.6336861  88.4376431  23.7162399
  53.5254288  89.6363354  23.9589930  59.4082737  86.6978168  16.4406955
  58.4858942  86.8314457  16.6588545  59.7698784  86.2396240  17.1993363
  25.0822234  85.5978107  50.8048248  25.9199834  85.2772617  51.1389542
  24.6271491  84.8109531  50.5048275  51.4430809  94.0702057  40.8388519
  52.3151588  93.9643288  41.2189865  51.3449812  95.0154209  40.7240725
  78.2870007  92.4220181  43.5682631  78.7440538  91.6722775  43.1871843
  77.4122190  92.3914146  43.1808949  82.5979997  24.5205688  29.5320988
  83.0920459  23.9270400  28.9665222  81.6807700  24.3355941  29.3303418
  19.6958792  97.3089600  14.2660046  19.7530925  96.8628979  15.1109815
  19.0076721  96.8402576  13.7938559  32.7790594 106.2792301  37.5152206
  32.9649854 107.2107315  37.3970652  32.8307009 106.1427975  38.4612393
  84.1662598  96.5654182  44.4873953  84.2006397  96.3575554  43.5536718
  84.8901272  96.0695648  44.8699713  36.4005065 101.5573406  22.4238849
  35.6873846 101.1879158  22.9446650  37.1697283 101.0454369  22.6738501
  86.6313601  14.2084217  43.1558228  87.5339843  14.4236373  43.3907461
  86.5432978  13.2794856  43.3692837  78.7907220  41.3506698  26.1643934
  78.6402417  41.6014766  27.0758128  78.5325003  42.1209716  25.6582427
  47.8760862  85.4704571  27.9516745  48.7285852  85.6697941  28.3386421
  48.0840111  85.0171757  27.1346498   6.1920785  60.1582735  77.2460974
   6.8789529  59.4958608  77.3212278   5.7616424  60.1550119  78.1010497
  80.1600266  78.5724211  23.7990427  79.6355963  78.5828972  24.5997262
  80.6635761  79.3858051  23.8318896  35.5264020  99.9970055  62.5090361
  34.6126390  99.8705292  62.7645206  35.4877663 100.2015495  61.5747452
  12.7219307 104.4285679  33.4621406  12.4582720 105.2386379  33.0256772
  11.9550776 103.8596821  33.3948016  64.7562170 102.7799511  33.4006238
  64.4958925 103.6331749  33.0535340  63.9388418 102.3857403  33.7051320
  69.4395161  90.2894783  14.7995961  70.3420162  90.4414845  14.5192099
  68.9064455  90.7472801  14.1496086 106.4215232   0.4838848  51.8739080
 105.5778313   0.5811119  51.4323616 106.4455319  -0.4337597  52.1451807
  10.5672717 104.0000153  15.2295494  10.0069249 103.4316826  14.7011125
  11.1760986 104.3877029  14.6008515  45.3034634   3.1111621  38.3477926
  44.7210563   3.7447357  37.9287267  45.2550531   2.3353481  37.7892160
  71.9521379  99.1462803  13.0361307  71.5890551  98.6031914  12.3365116
  72.8552580  99.3125820  12.7660358  67.1675373  20.8751773  76.5531921
  67.7106095  21.6080284  76.8434191  66.7523266  20.5531692  77.3532820
  59.5442247  67.6213264  20.5840158  60.1153755  68.3497334  20.3401995
  59.6493530  66.9868469  19.8750603  42.0178223  85.8220482  34.7152901
  41.8989897  86.7718220  34.7204828  42.9642010  85.6986618  34.7885966
   7.3827647  70.4638784  82.7170414   6.5887880  69.9424570  82.8351575
   7.1433734  71.3379114  83.0252713  24.1324496  99.7019100  16.8130445
  25.0803995  99.6399117  16.9304323  23.9168453  98.9816093  16.2206709
  83.1554080   6.3353252  16.6859305  83.5764886   6.1098670  15.8564186
  82.7970935   5.5072402  17.0054924  29.5968819  99.8765373  14.5604086
  29.3135715 100.6325817  15.0745726  28.8316250  99.6442413  14.0344298
  24.6558356  90.1893139  29.6085024  25.4388142  90.7376099  29.6589589
  24.9007893  89.3800831  30.0572562  73.8064194  95.5487347  13.3283591
  73.6932564  94.5995903  13.3788669  74.0233612  95.8120060  14.2227054
  66.0596132  62.1924162   5.0985879  65.3096390  62.0791912   4.5146754
  66.8228436  62.1118641   4.5265511  31.0187221  73.7183905  63.9656830
  31.0356641  74.6473312  64.1959238  31.9377899  73.4512901  63.9799738
  51.5553617  89.5076084  36.8953228  52.2029924  89.5802593  36.1942315
  51.3182974  88.5803127  36.9072580  53.5494375  98.5436058   2.2980142
  54.1531324  98.3675671   3.0196753  54.0003109  99.1963100   1.7623726
  45.9805441  77.9124641  14.9638748  46.3898039  77.0604515  15.1149023
  45.1791430  77.8892899  15.4867995  70.2273775   6.5083503  42.4935246
  69.3337704   6.2112903  42.3219013  70.3865076   6.2732791  43.4076691
  29.2310145  23.2854366  25.5527616  29.1059020  22.8299808  26.3853073
  29.7996046  24.0249442  25.7673955  25.0242281  98.6213017   6.7014414
  25.8498764  98.9186859   6.3192189  24.4252396  98.5573006   5.9575665
  66.4019442 101.2259293  50.1998520  67.2251415 101.5677452  50.5487728
  65.8388329 101.9955635  50.1173639  68.3773924  19.3524551  12.0228183
  68.3449412  19.9764060  11.2976515  69.2819453  19.3928813  12.3332727
  48.2924843 102.4584103  50.1432705  47.8659582 101.7809868  49.6184826
  47.6104546 103.1142902  50.2878094  44.3125296  73.8007641  13.1208992
  44.8036528  74.5616674  13.4308362  44.9283648  73.3310890  12.5584221
  77.6608516   7.2420883  29.6523762  77.7081109   6.8136691  30.5070424
  76.7238451   7.3543167  29.4921947  54.2198086  88.4468365  12.4496007
  54.5448160  87.9476738  11.7003107  54.8021698  89.2045975  12.5033665
  58.6664916   6.4050674  50.4030037  57.8637768   6.9129657  50.5209684
  58.6133958   5.7159614  51.0652351  39.9988341 102.3017788  27.2975802
  40.0838375 103.1006241  26.7771530  39.1894913 102.4241638  27.7937818
  51.2367678  86.8466568  36.5000200  50.4773951  87.0176220  35.9429288
  51.5402842  85.9794140  36.2316799  77.1166850  23.2446670  66.2118769
  76.9494034  22.4342060  65.7308292  77.8028155  23.0141544  66.8382359
  36.2579346  58.0325365  30.6587815  35.8603978  57.2117949  30.3679585
  36.5976572  58.4312105  29.8576069  44.4985342  97.0853329  55.9047365
  44.5655632  97.7818966  55.2516317  44.3520641  96.2900639  55.3925610
  46.0321379  51.8762636  29.5294309  46.7327213  52.4713326  29.2623925
  46.4871597  51.1327410  29.9248600  33.8725090 103.0542850  53.3008528
  33.7284136 102.2558212  52.7929926  34.0538120 103.7265015  52.6439762
  12.1565700  97.3434258  29.8517036  11.6270030  96.7584705  30.3935671
  12.5036299  97.9902458  30.4660416 103.0919982  15.1989936  30.5032444
 103.8624431  14.7297286  30.8233047 102.4916268  15.2102661  31.2486720
  41.0933113  71.7815495  55.7095909  41.3970566  72.6649809  55.9182167
  41.4598703  71.6003895  54.8441124  53.0065250  73.7500668  53.4119034
  52.6379824  74.2806959  52.7056217  53.6488247  74.3225050  53.8314247
   1.2755944  83.0447197  40.1266479   1.6993302  83.3792782  40.9170628
   0.6219360  82.4244785  40.4495478  95.4247905  25.2238082   7.8959203
  95.7444430  24.6725940   7.1816266  95.7989503  24.8332786   8.6856854
  20.3383970  56.3071251  55.3733110  20.3431940  56.9940853  56.0398674
  21.1309290  56.4654970  54.8604393  91.5196515  27.6165962  16.9954622
  92.2664166  28.0038928  16.5387642  91.4448262  28.1228065  17.8044021
  67.3035742   1.2120437  31.9231963  66.4960576   1.6663169  32.1635723
  67.0174385   0.5042838  31.3457656  43.6628103  93.2186508  43.0819273
  43.7221479  92.3534489  42.6767874  42.7814293  93.5238743  42.8668976
  46.6510248  89.3265247  24.2431116  46.3118267  88.4630203  24.4787860
  46.5628195  89.3667698  23.2908344 110.9786416  22.5377273  48.3322954
 111.3890410  23.3952617  48.4438038 110.5881453  22.3463725  49.1850138
  41.6438818 105.9444237  23.3242273  41.4820194 106.1451054  24.2460513
  42.3126316 105.2598190  23.3419824  30.1597047  93.1883430  45.6909943
  30.7995653  92.5667572  45.3439426  29.6876431  92.6961994  46.3626957
  89.4870854   3.4748268  13.5095310  89.4846917   2.6233768  13.9468729
  90.3763104   3.8060951  13.6351287  36.0041165 100.4826260  65.4712534
  35.5486345 101.2873459  65.2238750  36.5038991 100.2409172  64.6914911
  37.7483511  98.0945778  26.6416454  37.3515821  97.2494698  26.4304566
  38.6286306  97.8761196  26.9476128  53.4964275  75.2643108  57.2828579
  53.5416174  75.9732199  57.9244471  54.1198254  75.5173779  56.6020012
  51.9778728  94.6852207  27.0605612  51.9537163  94.8221970  28.0076027
  51.1089325  94.3463326  26.8453312  57.6856125   6.5935802  23.0682993
  58.2679511   6.5267944  23.8250375  57.1976662   7.4043750  23.2123971
  54.8032570  79.2583466  53.1815195  53.8532305  79.3614197  53.1262350
  54.9321508  78.3324575  53.3872938  29.2018623  15.4209041  24.3641949
  28.9677013  14.5361614  24.0837765  28.3833767  15.7923221  24.6933770
  26.2914872  91.8257523  20.2201486  26.3909531  92.3521996  19.4269383
  26.0274649  92.4535465  20.8927464  42.2702480  27.7556323  59.0119553
  42.6177395  28.4886932  58.5039139  43.0121762  27.1587467  59.1094303
  66.5507222   7.6609325  34.1142559  65.9430028   8.0497932  34.7433043
  67.0826984   7.0596122  34.6354532  51.8109131 103.9189720  37.5925493
  52.4156523 103.4277534  37.0364714  52.0381784 103.6558819  38.4843826
  81.5143872  23.8327312  25.5982971  81.4247847  24.1032504  24.6845031
  81.6278888  24.6517562  26.0805249  23.1059313 104.5543671  42.5416374
  23.6250138 104.2077923  41.8159151  23.7546372 104.8479080  43.1813622
  87.0861245   7.9331874  36.3628936  87.0106221   8.1317615  35.4295659
  87.1581364   8.7893390  36.7848539  11.0152864  67.2991674  84.0353167
  10.2815770  66.9984357  83.4991604  11.6086959  67.7212827  83.4140963
  63.2182170  39.6084976  36.4047456  64.1685558  39.7218799  36.3896132
  63.0906344  38.6604690  36.4393377  64.8026729   8.3645439  25.0531983
  65.4492379   9.0430831  25.2475476  64.4020320   8.6441898  24.2300844
   6.8858912  18.5160922  28.1364584   5.9558585  18.2983112  28.1983685
   7.2832301  17.7528190  27.7172208  27.1853017  64.7859781  84.2651427
  28.0354833  64.5005243  84.5997179  26.7385720  65.1528280  85.0280863
  26.1648607  94.1057014  24.5515013  27.0177984  94.4415283  24.8270941
  26.1655402  93.1906796  24.8325205  46.5814304 106.4379692  38.4296846
  46.4300060 107.3786926  38.5210443  46.2077093 106.0569382  39.2242765
  50.4042053  80.9479618  34.4923949  50.3632212  81.6491508  33.8420963
  50.0130606  80.1920033  34.0544796  27.0507884  99.8697281  82.1800232
  27.2156405  99.6616268  83.0996704  27.7364922  99.4030952  81.7022228
  53.8054037  73.6261892   7.8940058  54.2479610  72.9258633   7.4145091
  54.2986107  74.4163084   7.6733500  60.3426338  26.6307449   6.0138553
  60.3249050  25.6934547   5.8204842  60.4004622  27.0512485   5.1559132
  53.9585924  86.9957256  62.8836632  53.5354090  87.7986908  62.5796890
  54.0511847  87.1167564  63.8286543  95.6122447  34.2971801  11.0925758
  94.8832227  34.9013233  11.2331772  95.2566815  33.6235427  10.5129015
  74.4386483  20.1305770  32.9773474  74.9839784  20.4359435  33.7023282
  73.9912964  20.9175109  32.6661515 106.0959245  20.2753925  12.0701206
 105.2598525  20.0799083  12.4932051 106.6236306  19.4887161  12.2075820
  56.2335539  73.6240816  59.5640659  56.6294813  74.2041540  60.2144432
  56.5745306  72.7557468  59.7784567  51.0345125  87.6097012   9.7676206
  51.5338087  87.2604561   9.0294015  50.1558161  87.7530193   9.4160736
  97.5624944  16.1474800  18.3044994  97.2183276  15.4056262  17.8070807
  97.2747041  15.9874057  19.2032671  49.2689323 100.4668999  21.6723633
  49.6456194 100.3723907  20.7974887  49.3042135  99.5858288  22.0447826
  94.5803786  13.8551044  15.3999615  93.6584235  13.8378524  15.1431894
  94.6237613  13.2946395  16.1747074 109.0193892   3.7239742  35.6334591
 108.3544303   4.3964004  35.4854226 108.5736657   2.8994750  35.4391456
  37.5990009 103.2147694  38.2707715  37.1689034 103.3515644  37.4266529
  36.9133615 103.3786774  38.9182782 112.8272483  86.0561085  10.8257961
 112.1925463  86.6018105  10.3614664 113.6469500  86.5480042  10.7771599
  45.6347179  67.8737164  39.5821309  44.8529291  67.7581120  40.1222038
  45.8637381  66.9882965  39.2996264  44.9741507  94.4038296  58.1800032
  44.1700268  94.0435982  57.8060389  44.8531818  94.3277359  59.1264772
  77.9760171  27.6328182   7.8366584  78.7507916  28.1191921   8.1184202
  77.6153422  28.1522560   7.1180958  86.8465949   2.8439807  25.4466510
  87.1575499   2.1613979  24.8519969  86.1234761   2.4357032  25.9227109
  78.5467530  15.7324314  33.2634425  79.2351867  16.3945102  33.3261561
  78.3495189  15.6798171  32.3282623  49.2417336  85.4386330  47.2134733
  50.0803757  85.4494572  47.6747608  49.4564390  85.1294708  46.3333845
  51.8680906 104.2035484  55.8763266  51.0185719 103.9023781  55.5540705
  52.1164083 104.9066067  55.2760935  62.2853708  90.0708389  18.1447017
  62.7867413  90.6642723  18.7038946  61.7149353  89.5965099  18.7495494
  45.7539129  65.5681705  18.3001757  45.2428722  65.0455141  18.9181578
  46.3174486  64.9331379  17.8581393  20.5339360  87.9040337  29.8758030
  21.0142255  87.7100086  29.0708780  19.6768510  88.2071018  29.5761585
  64.4493532  94.4617176  75.8956575  64.3380594  93.5795116  75.5413294
  63.8422108  94.5013905  76.6346025  74.0153480   1.5681743  20.2262831
  74.5862175   0.8954524  20.5974889  73.7883187   1.2368678  19.3574166
  94.6345855   6.2941932  58.6586237  94.6822501   5.3905677  58.3464909
  93.9636803   6.2767600  59.3411350  51.3994408  82.7865505  40.7213831
  52.0381069  82.9784393  40.0347137  51.5594673  81.8704605  40.9481049
  42.4459648  97.9557037  86.0205173  41.9517183  98.1333637  86.8207645
  42.9326248  97.1541309  86.2125683 100.7068730  36.1964416  35.2217603
 101.5505076  36.5312576  34.9177504 100.9134436  35.7228183  36.0275126
  81.9812156  41.5083599  21.8292189  81.7020512  41.7527484  22.7115822
  81.3007069  41.8616580  21.2562323  65.1641942  26.9053172  36.4630103
  64.8675109  27.7138137  36.8808079  65.9871317  27.1441650  36.0364461
  28.8472605  93.0824089  16.1902010  29.6459651  92.5555229  16.1638916
  29.1581511  93.9861774  16.2428904  92.7050544  10.1089572  70.4510355
  93.2936622  10.6847476  70.9391308  93.1840516   9.2834949  70.3774595
 109.4911624  10.6816005  37.1559644 110.2394725  10.7169341  37.7517939
 109.2427731  11.5972232  37.0288348  96.6726399  13.4531211  35.8115387
  96.2090302  13.3518218  36.6428256  96.9328070  12.5635337  35.5724406
  80.3580333   4.2094325  27.3406029  80.3898097   3.3520603  27.7650189
  80.3316832   4.8344802  28.0650711   9.9637592  84.9370670  22.2152638
  10.5092084  85.5342865  22.7271771  10.0011694  84.1088867  22.6937366
  94.8516417  27.4995136  48.1655502  93.9698315  27.8509998  48.0426836
  94.8496009  26.6732311  47.6823473   6.8741896   0.0551891  11.0439026
   7.7406599   0.4475212  10.9364450   6.6097929  -0.1882268  10.1567316
  50.8804274  96.6601276  46.3841915  50.3876257  96.1109924  46.9939709
  50.6745481  96.3030529  45.5202770 112.4685288  20.1465225  48.2335472
 111.9382192  20.9389591  48.1496000 112.8845740  20.0449466  47.3775005
  90.1721955   8.5477638  42.4258995  90.6115390   8.7252998  43.2575798
  90.8032227   8.0282115  41.9278002 109.0205956  28.3058166  28.8087559
 108.4767581  27.5647640  28.5417295 109.8761321  28.1281566  28.4179544
  80.1225948  86.1676216  27.2722912  79.8748207  86.1425400  28.1965232
  80.1462650  87.0997334  27.0558691  70.9209109  24.2286682  26.3172293
  71.2751437  23.3402252  26.2797022  69.9736977  24.1121768  26.2434340
  71.3025475 101.7648506  20.9550619  72.2443771 101.7782116  21.1253834
  71.2321568 101.6531467  20.0070119  59.5046473  97.7094364  14.1640377
  58.9953470  97.7087021  14.9744964  59.6093750  98.6359978  13.9478087
 102.4623347  25.0202941  46.0611868 102.8713799  24.6464061  45.2807236
 103.1056834  25.6472206  46.3917923  50.9040070  80.3449059  38.3487344
  50.3171158  81.0792637  38.1684375  51.3352776  80.5791473  39.1705418
  54.7146381  12.0441627  53.4828568  54.3600179  11.9192027  54.3631172
  55.1541520  12.8936767  53.5200644  89.7830868  98.4108639  50.1282167
  88.9622688  98.9020157  50.0927782  89.5117950  97.4942207  50.1772404
  52.5539398  60.5203485  56.0867834  52.5018501  59.8057842  55.4520273
  52.4448395  61.3142157  55.5632353   0.3803065  14.0475749  62.7771091
  -0.4617117  14.2076015  63.2032919   1.0314276  14.3270301  63.4206724
  52.5238228 103.6870480   9.9957842  53.0204725 102.9128742  10.2607858
  52.4087715 104.1861629  10.8044076 103.1980944  12.2769832  18.9270353
 102.9651881  12.7368354  19.7335815 103.9746714  12.7351856  18.6057842
  91.1362887   2.3786163  34.7943711  91.6819526   1.6049575  34.9355459
  90.5825473   2.4265956  35.5736661  70.7476282  70.9357309  24.3725991
  71.6005850  71.3085604  24.5955324  70.6979322  71.0046101  23.4191751
  34.8302077  20.2750080  84.3133772  34.5431327  19.3742912  84.1632760
  34.3507051  20.7904451  83.6648155  79.6573687  16.0272788  17.5672901
  80.2971125  16.2974548  16.9085312  80.1027060  16.1633300  18.4035897
  63.1897211  98.8951015  52.4666882  63.0447340  99.7860622  52.1482658
  62.9914379  98.3368206  51.7148590  35.5716323  66.6431539  89.5186717
  36.1028623  66.0248487  89.0169502  34.6923541  66.2649553  89.5107010
  67.0891905  95.5207348  40.5516529  66.2542009  95.3762341  40.1065207
  67.0428228  96.4257622  40.8598757  39.4115109   5.9763812  30.9009647
  38.5167640   5.6519699  31.0030270  39.3890024   6.8604183  31.2673140
  54.4132388  14.7672462  14.0771055  54.3484176  15.2200317  14.9179471
  53.9758278  13.9283370  14.2224753  91.3442803   8.9358234  73.4663343
  91.9930364   8.5996341  72.8480148  90.9277869   9.6634674  73.0044889
  77.8723431  93.8877678  17.5199890  77.5920105  94.8020840  17.5608826
  78.6197758  93.8395309  18.1160152  72.2689534  18.9709281  37.7521253
  73.0169774  18.7068843  37.2164226  72.5129796  19.8296070  38.0976033
  74.5203186   4.5262145  41.8760633  73.7264157   4.9358367  41.5323210
  74.2869187   3.6041164  41.9832611  60.6158733 103.3769798   9.0715873
  59.7674942 102.9526711   8.9433259  61.1502886 102.7157974   9.5114398
  44.1900635  95.2057934  66.4690638  43.7530327  96.0546684  66.4009905
  44.7762489  95.2977371  67.2201729  85.1220942  21.3661479  28.8357282
  84.6346331  20.5980396  29.1334367  84.7144509  21.6001319  28.0018806
  97.9110099  12.4459457  23.1521511  97.5831891  12.6124286  24.0359211
  98.4066201  11.6307640  23.2301378  77.2426987 105.0213242  23.8404059
  76.6785669 104.9501991  23.0703878  78.0861759 105.3117371  23.4933615
  26.2725759  92.9824257  31.8303990  27.1404147  93.3736801  31.9304276
  26.1240244  92.9676819  30.8849120   6.2340688  90.7433240  85.0645447
   5.8723354  90.5054491  84.2108476   6.1196803  91.6922014  85.1171726
  54.7112893  71.2908761  82.5537014  54.1560315  71.6425817  83.2495582
  54.1818284  71.3725679  81.7604614  48.7912512  96.9192028  13.3368945
  49.2755318  97.7439499  13.2983387  49.2066336  96.4305305  14.0474534
  29.7560262  33.9296262  79.2507220  29.2558765  33.2484167  78.8012457
  29.0917396  34.4817750  79.6631480  52.7328873  86.1377907  91.5985966
  53.6302710  86.2056828  91.2725258  52.4474096  85.2633190  91.3339806
  93.6726046  41.6185951   2.0754358  93.6082793  40.7820320   2.5361598
  94.5799638  41.8943881   2.2052865  55.2695037  17.6939773   1.2477212
  56.1831463  17.8199577   1.5038823  54.7645522  18.0675315   1.9700190
   9.8604681  16.8593025   4.4163784  10.0928023  16.0517978   4.8748466
  10.5515768  17.4772739   4.6545145  62.5481558 101.1359882  30.7498384
  62.3433638 101.8819332  31.3136292  62.4753714 101.4811897  29.8600245
  82.0836688  33.1602954  63.8186073  81.3934947  32.4982643  63.8587332
  81.7526198  33.8839626  64.3505335  76.8939615   7.9940032   1.8411711
  76.3802672   8.7527561   2.1180050  77.6047207   8.3640670   1.3176212
  77.7362729  30.3945922  30.1872158  78.4386063  31.0336303  30.3080106
  77.4354697  30.5360984  29.2895961  55.2507591  99.0332222  37.4306917
  54.6193266  98.8093948  38.1143785  55.7267523  99.7859859  37.7814150
   0.0318482  27.1830272  51.2571955  -0.1993654  26.8399143  52.1203518
   0.5019047  26.4655685  50.8323002 103.4563399  24.5643711  43.2147741
 103.9574529  24.0290260  43.8300180 104.0048219  25.3345203  43.0655289
  34.4272137  94.7299194  24.0721941  35.1482749  94.3170547  23.5969567
  33.7444425  94.0596771  24.1009331  98.1256629   9.4234943  27.4663711
  97.4495602   8.9347362  27.9356670  97.8048230  10.3252410  27.4547720
  42.3201561  76.4856768  31.9436193  41.4548922  76.6679525  31.5771151
  42.1569109  75.8452559  32.6360393  86.0729218  49.2541027  13.0207646
  86.0677242  50.2078533  12.9397225  86.5882683  48.9529467  12.2724664
  86.4148093  10.4095745  41.8429375  86.7508889   9.5187759  41.9418001
  87.0398856  10.9556770  42.3196697  88.9040328   3.7389278  23.3670902
  89.8109389   3.8758563  23.0932140  88.4046937   4.3924808  22.8774428
  29.2105675  94.1095543  20.6875944  28.3250833  94.1145134  20.3241062
  29.5795870  94.9546337  20.4308772  14.7786760  56.8079298  84.0034724
  14.2533397  57.0210569  83.2322204  15.4130363  57.5220125  84.0659649
  67.3532200  89.1641808  49.3421125  67.4578524  89.4194794  50.2586889
  67.7438164  89.8841763  48.8468599  77.2257686   4.8900318  38.5575724
  76.7788983   5.5028247  39.1415477  77.0050526   4.0252590  38.9035320
  97.5483895  25.4172134  48.9031029  98.1701518  24.7279834  48.6694336
  96.7726756  25.2291870  48.3747578  53.1175089 104.3510151   7.2217280
  52.5653696 105.1219177   7.0910448  52.9936886 104.1210461   8.1426060
 105.1279403   4.5090675  84.9800110 105.6955911   4.0170764  85.5732632
 104.5317221   3.8526248  84.6196651  11.3708498   8.8951873  22.1274090
  10.6288912   9.3522262  21.7313933  10.9802153   8.1392002  22.5657272
  85.2775860  97.4108315   8.2961947  84.6472359  97.4858856   9.0126175
  84.7897911  97.6821518   7.5185812  98.5760451   8.5284900  24.7208595
  99.5170594   8.5793685  24.5531225  98.4906150   8.6964702  25.6593251
  60.9309387  94.4198990   5.6916541  61.7595434  94.3566227   5.2166355
  61.0570955  95.1505470   6.2970239 104.4390393   9.5901298  18.7178135
 103.6483718   9.1071796  18.4773207 104.2805768  10.4804801  18.4041190
  33.0067253  91.4468670  36.6770315  32.7247977  92.3097515  36.3734031
  32.6061702  90.8335114  36.0609293  94.6230460  23.4802341  38.5194826
  94.5718528  22.5249576  38.4871101  95.5531407  23.6743163  38.4033203
  83.9193154   5.8820438  25.2453709  82.9904986   5.7074546  25.0935411
  84.1959239   5.1956367  25.8524704  97.0081616  15.0515365  15.5932498
  97.0335770  14.1773128  15.2042520  96.0804797  15.2874183  15.5918944
  54.4357061 105.7660294  28.7846804  55.2272463 105.7293034  29.3216562
  53.7228537 105.5800247  29.3958068  84.5208884   3.0867957  32.4326897
  85.1591349   2.8518390  33.1062388  83.9559365   3.7347412  32.8536797
  77.1120859  27.6421737  17.5429678  77.9644442  27.4788665  17.1391773
  76.6598345  28.2155895  16.9241798  91.3238860  15.5048465  17.7542245
  91.3819791  14.6120262  18.0944037  90.5969334  15.4772949  17.1321225
  21.6150477  31.5228557  23.1498361  22.3360445  31.1170005  23.6311603
  21.0629275  30.7884788  22.8813386  72.7999211   6.5859603   9.0268904
  72.2380687   6.6248798   9.8008662  72.6297189   7.4073600   8.5658276
  42.9342365  84.5837402  42.3490810  42.5784206  83.8089275  41.9140148
  42.9706383  85.2488899  41.6617060  28.4413981 102.8536034  24.8037577
  27.5042486 102.8776836  24.9971652  28.5122752 103.2085514  23.9176321
  32.4567842  45.1803319  78.1627226  32.4398994  45.3379838  77.2187460
  31.8693828  45.8426778  78.5267151   5.8888191  45.3739595   3.5142654
   5.7608515  46.3208008   3.4564057   5.0090241  45.0210381   3.6470783
  22.0677757  11.3042819  43.3192968  21.9779015  11.7275512  44.1731119
  21.3113570  10.7206690  43.2604790  26.9962153  91.1139124  85.5130899
  27.1093497  91.6494959  84.7278619  26.2727246  90.5248635  85.2990431
  94.9469291  40.9868860  37.8017211  95.7847021  41.4303827  37.9346776
  95.1836954  40.1265049  37.4554372 106.3149308  37.1485567  54.5616198
 107.1351175  36.6552877  54.5761442 105.6566416  36.5106463  54.2860174
  13.2077444  38.9328074  69.8095655  12.6078308  38.2429767  70.0932360
  12.7593470  39.7478509  70.0351191  13.0574870  38.7426281  11.6853666
  12.5309849  37.9931855  11.4072216  13.5772812  38.4115434  12.4177790
  28.7465453  39.1525531  13.9025879  27.9876065  39.1317487  13.3196545
  28.9725447  38.2318163  14.0344989  34.3180227  98.0784130  12.3702669
  33.7539339  97.4489784  12.8195453  34.7253799  97.5746346  11.6656423
 100.4935287  26.7989874  17.4957156 100.3060029  27.6962137  17.2199440
 100.5601750  26.3060379  16.6779208  29.2172527  61.0291386  40.3570700
  30.0275874  60.6286955  40.0420475  29.5036077  61.8151236  40.8223200
  89.1152595  36.1377001   0.9415351  88.5549448  36.6945457   0.4009797
  89.9770521  36.1922216   0.5285282   0.7255715  20.1441860  72.1918297
   1.2397847  20.1679492  71.3848257   0.9324005  20.9686351  72.6319838
  65.4785678  33.7338655  89.7525701  65.1252482  34.4984548  89.2978120
  65.7137606  34.0594785  90.6214187   1.0611984  30.0247049  18.1741893
   1.3116470  30.7025528  18.8019061   0.1050273  30.0620103  18.1501722
  54.8126888  29.3322659  43.0359936  54.3089914  28.5332537  42.8807449
  54.4164085  29.9818468  42.4552727  95.6339680  18.9083934  17.6729012
  95.6655513  18.4431398  18.5088289  94.7776793  18.6862111  17.3073351
  15.3440142  32.9702353  45.9254694  15.6228018  33.8850808  45.9650803
  15.9717846  32.5538993  45.3348780  15.4434526  74.8604870  27.0787907
  14.8345935  74.1862679  26.7772102  14.8908460  75.4961634  27.5335073
  84.9113129  55.7043552  31.5188742  85.7935403  55.5757523  31.1704898
  84.5365404  54.8242235  31.5527749   5.0932533  52.4171972   4.9429640
   5.1155233  53.1179571   4.2912978   4.5577732  52.7685738   5.6543201
   9.7045356  28.7211823  19.9854946   9.9970222  27.8676248  19.6659231
  10.4279530  29.0343857  20.5284524  34.6286035  30.0977230   7.0820290
  33.9962387  30.8137560   7.1423918  35.0546479  30.0815535   7.9390341
  27.9948473  56.0903358  25.8332515  27.4791479  56.4946842  25.1355481
  27.4931979  56.2595654  26.6307092  60.9989688  58.3174291  90.7240157
  60.5284306  58.6125147  89.9444324  61.4496109  59.0996801  91.0421959
  90.3892539   3.7512939  91.0004786  90.0447462   4.2471807  91.7432069
  90.0157414   2.8759592  91.1029749  25.0595903  61.3410568  14.6087325
  24.2575073  61.7130852  14.9754620  25.2190733  61.8513298  13.8147449
 112.0659545  49.7011232  19.0969098 111.3759641  50.3571463  19.1958070
 111.5969299  48.8708353  19.0140450   6.1896020  52.8645277  47.0869493
   6.5031332  53.7348700  46.8411207   6.6879338  52.6438522  47.8738451
 112.9190536  51.6035175   9.5521778 113.7703235  51.7576551   9.1425282
 113.0170451  51.9411230  10.4424882 104.8974101  38.0850983   6.1767602
 104.5072459  37.3526120   6.6536957 104.1937064  38.7307239   6.1119539
  97.2602080  56.7022896   2.8989270  97.8621326  56.3340425   3.5456979
  96.3936757  56.5994167   3.2923356  87.3524044  81.3079166  20.1801252
  87.6907276  81.0086536  21.0240531  86.4282988  81.4949703  20.3452635
   1.3429920  33.9134860   6.4650500   1.9420545  34.0860224   5.7386976
   0.5988551  33.4671831   6.0609394  23.3052874  46.0929728  68.0801105
  24.1797042  46.0773993  68.4691954  23.1515503  47.0148277  67.8732777
  11.5286934  32.7290773  14.5322561  10.6933141  32.6095819  14.9840236
  11.3018882  33.1987023  13.7296081   4.5811000  36.1445999  36.3020778
   3.8496587  36.7003250  36.0330153   5.2654058  36.3200140  35.6561756
  22.8766799  34.6894264  45.6623554  23.3231688  35.4506373  45.2916288
  23.2394600  34.6048880  46.5440989  11.9767785  85.8625984  23.7467217
  11.7861974  85.0845623  24.2707157  12.9282451  85.9559727  23.7938952
  67.6525978 100.9563119  18.1631529  66.9018159 100.5023218  17.7804649
  67.9683039 100.3639687  18.8455689  90.6555580  38.5387254  17.3904335
  91.0436128  38.7421417  16.5393949  90.6560086  37.5824046  17.4314475
  92.4711631  56.1759281  46.8941116  92.3623584  55.2254391  46.8629885
  92.9703329  56.3337517  47.6954556 112.3290041  65.9756517  11.4836252
 112.2262706  66.8839502  11.7676508 113.2634952  65.8876181  11.2959886
   2.5541404  34.2728424   9.4295621   2.3985559  33.4154129   9.0335333
   2.8649890  34.8177457   8.7065905 102.4605893  71.3709164  75.4061508
 102.3081540  71.1837339  74.4798946 101.6338859  71.7417955  75.7147694
  74.6436132  17.2331493  75.2475548  73.7736235  17.6004999  75.0913430
  74.9316786  17.6389711  76.0652089   1.5857710  25.7634830  30.1911259
   2.2009915  25.3280044  30.7811189   0.9769052  26.2182474  30.7731104
  29.4982052  19.3671823  50.3071356  29.2381167  19.0468109  51.1708212
  28.9789748  18.8482606  49.6928453   1.8036398  77.2381496  19.3763912
   1.5041305  77.2085905  18.4677362   2.7566895  77.1720743  19.3167055
   6.7853737  33.4010267  25.2516103   7.0686102  34.2993116  25.0810456
   6.4453721  33.4228587  26.1461234  43.4770277  54.6299423  86.3575065
  44.2118355  54.0352136  86.5077979  43.3367684  55.0558420  87.2031826
  47.6460743  74.6774340  18.8093698  46.8152714  74.6070004  19.2795146
  47.8353834  75.6156445  18.7968194  49.9001169  37.9002905  28.5715294
  50.4397154  37.2627044  28.1040359  49.3247557  38.2657051  27.8994703
  77.8615279  30.6146543  80.1299489  77.0930023  31.0242288  80.5272544
  78.6005524  30.9479349  80.6388676  17.7217984  12.0639336  32.6602197
  17.0418501  11.6622543  33.2011056  18.0438828  11.3494575  32.1106577
  47.2283745  43.5083580  35.0275612  46.9399261  44.4208908  35.0452089
  47.4812889  43.3195925  35.9312391   1.1297540  58.2081890  12.5713384
   0.2785787  57.8184938  12.3716664   0.9241998  58.9624977  13.1236100
 103.0628322  39.8008871  35.3859806 104.0160547  39.7511411  35.3144097
 102.8191088  40.5403805  34.8292208  18.7823534  51.0556173  11.1275220
  18.3636510  50.6853104  10.3504801  19.4766724  50.4335928  11.3448691
  23.1867003  44.1027403  60.9373999  22.7405167  43.8682461  61.7511368
  23.5677481  44.9631786  61.1125517 109.5899908  51.6619873  18.3640647
 110.2886189  51.8877935  18.9782012 108.8075264  51.5833807  18.9097774
  34.5642966 100.2746838  91.7691265  35.0811243 100.4892605  92.5457076
  35.1807114  99.8315590  91.1861131  19.3319345  28.6744618  19.3443298
  19.5393646  27.8476095  18.9089906  18.4220850  28.8498783  19.1042554
  52.3439500  99.8782557  87.1272880  52.0086607  99.4664162  86.3309217
  53.2916817  99.7520226  87.0814360 104.5573704  30.9157777  19.3744731
 104.0483837  31.4945912  18.8068986 105.1439409  30.4506040  18.7779987
 109.9274020  43.0534458   8.5920995 110.8347471  42.9118729   8.8621247
 109.6792574  42.2410250   8.1509340  28.9076209  29.6268511  18.4167433
  28.2991982  29.9358368  17.7454889  28.7385082  30.1910448  19.1712737
  97.3647605  31.3570833  19.3474638  97.1092533  30.4742384  19.6149182
  98.1960271  31.5120769  19.7960210  25.8543015  51.8502426  38.1129932
  26.6215420  51.3363838  38.3650279  26.2162805  52.6352310  37.7019000
  98.5290800  20.4086304  26.6206717  98.6885594  21.0701966  27.2938204
  98.8166986  19.5872414  27.0192051  40.3750688  89.3395084  87.5610313
  39.6553764  89.3519872  86.9300646  40.3881284  90.2238982  87.9269755
  12.4968243  39.3457198  42.1143246  12.2418821  40.2046442  42.4512053
  11.6810238  38.9635324  41.7908525  76.0459207  55.0205088  14.6694386
  76.6157649  55.7620525  14.8734605  76.0512637  54.9702263  13.7135744
 109.9472663 104.1955561  50.0578785 110.2202795 104.9593777  50.5660820
 110.6122658 104.1124422  49.3744326 105.1265024  38.7139082   3.4478346
 104.8975061  37.8049111   3.2541433 105.1529901  38.7557602   4.4037521
 110.7680318  11.7909257  86.5679902 111.6616080  11.6526287  86.8820429
 110.4641817  10.9182661  86.3182432  60.2987895 104.6761621  26.3814044
  60.6449876 105.4244081  25.8950853  60.1629636 104.0007189  25.7169056
   9.2073464  47.1920300  20.3630614   9.9660486  47.7754021  20.3798246
   8.5797298  47.6317644  19.7895086  58.4956036   1.3357465  75.3824628
  59.2917106   1.1984031  75.8958650  57.8611682   1.6791790  76.0115707
  76.9620752  42.6061249  15.9431028  77.5806379  42.7333260  15.2237749
  76.8059683  41.6619062  15.9606099  57.7049646  92.7347701  66.4850343
  57.6897952  91.9767492  67.0693362  58.5943982  93.0797523  66.5633047
  11.1440587  45.6727743   7.6193696  11.2056196  45.2027607   8.4509504
  10.5788600  46.4217043   7.8088182  14.2287540  23.0561845  66.9207633
  14.6759175  22.2655408  66.6188300  14.4397496  23.1095188  67.8528941
  14.0372014  80.6293583  20.8771348  13.8777173  81.2066078  21.6238475
  14.9868035  80.6483078  20.7582736  61.8008873  82.8932422  89.0471232
  62.7386758  83.0835145  89.0712408  61.6496011  82.3371046  89.8113570
  12.9980159  37.7907681  38.5644889  13.7057459  38.2002950  39.0621209
  12.7874374  36.9971085  39.0564156  14.9568284  10.1537061  44.7670746
  15.5407321  10.9120870  44.7549820  14.3156147  10.3559589  45.4483747
  37.6608419  24.4859815  22.8451610  37.3956156  23.8744187  23.5320950
  36.8522120  24.9352503  22.5991774 104.0788756  46.8885374   6.2001508
 103.8792549  46.1522007   5.6220537 104.1241048  47.6458549   5.6164980
 104.0707545  25.0569582  13.9105225 104.7808181  25.6219697  14.2151594
 104.5141105  24.3277550  13.4770131 108.5706256  47.6516151  36.9127035
 108.6928396  47.6766920  37.8617382 109.2506172  48.2305861  36.5682650
  30.6747556  35.7848001  11.9502103  30.1999784  36.0094452  12.7504313
  30.9132361  34.8647332  12.0634937  99.8100804  47.5914383   4.9577168
  99.7067986  47.7159500   4.0142864  99.0512274  48.0306244   5.3417629
  12.3674810  69.2575979   3.2358316  11.9686842  69.5800161   2.4275994
  11.6826570  69.3572187   3.8971353  12.0530081  26.7576504  34.4608426
  12.3188710  25.9242916  34.0721774  11.3382530  26.5278172  35.0545883
  54.5042381  73.6200684  65.8748162  53.8690635  72.9847413  66.2051881
  55.3407129  73.3365136  66.2437857  97.7838729  80.6561947  39.1641140
  96.9615577  80.9247780  39.5738626  97.5355004  79.9472952  38.5708141
  95.6466328  52.0977783   6.9791883  96.3322948  51.4356899   7.0671755
  95.0602590  51.7476606   6.3085032 112.1172722  65.2466631  -0.1477165
 111.9150421  66.0723734   0.2922147 112.6245068  64.7508097   0.4949922
  89.3247172  61.2705927  88.6303604  89.5426890  62.1367043  88.9747027
  88.6070964  60.9657353  89.1856215   3.0931476  29.4674826   6.1735511
   3.8677716  29.2995429   5.6369084   2.3878253  28.9961481   5.7301593
  34.7108459  75.2021790  35.3545165  33.9841437  75.0154209  34.7601604
  34.9506760  74.3486023  35.7152295  40.1837444  37.8147316  27.2310996
  39.6854401  37.3926663  27.9309487  40.3767681  38.6894560  27.5684834
  49.7440228 102.1819132  84.2211718  49.3555853 101.9930332  83.3669633
  49.3014511 101.5835636  84.8231191  27.6153278  62.8747463   6.3294762
  27.8558397  62.9787350   7.2501123  28.4293652  62.6169491   5.8969074
  31.0524297  72.4116850  43.3055210  30.1920056  72.4850559  43.7184620
  31.2829757  71.4869833  43.3950090  28.2181859  29.8493409  13.1929350
  29.0964985  30.0421858  12.8648984  27.6904297  29.7229099  12.4044406
  43.9555597  33.7088752  12.9649329  44.6206379  33.4908009  13.6178863
  43.1541204  33.3021140  13.2942879  23.2056710  61.9153314  85.2187914
  23.0169579  61.5763813  84.3437296  22.8293487  62.7954494  85.2210325
  42.1880007  43.6752701   0.8803689  41.7949963  43.8919830   1.7258362
  41.6441250  44.1327095   0.2391376  32.5755548  25.8812881  39.0146375
  32.3657393  25.6182480  39.9107504  32.1696782  25.2096033  38.4666061
  30.2840397  93.3705872  75.3186310  31.1922964  93.6724632  75.3055835
  29.9153367  93.6847656  74.4930530  13.5366833  24.2956591  21.3549614
  14.4899011  24.3155527  21.4398956  13.3738375  23.7013364  20.6225061
  91.8656658  65.3540754  15.1932180  92.7354072  65.2596617  14.8048007
  91.8025683  66.2827492  15.4164279 106.1566804   0.7689064  71.5140498
 106.0761020  -0.1598866  71.2970555 105.7567642   0.8481090  72.3800886
  40.7527590  33.7561584  27.4812770  40.2975225  33.4533429  28.2669592
  40.0521421  34.0263033  26.8876505  48.9550778 104.4541996  91.3438814
  49.3597612 105.3116959  91.2128660  49.1704985 103.9639538  90.5504814
  93.6521922  49.0427828  32.9694438  93.2819484  49.8175812  32.5465441
  93.6332999  49.2480564  33.9041829   4.7812938   6.8000095  82.4530375
   4.6242332   6.6959159  81.5145672   4.3169402   6.0665815  82.8563917
  41.1025620  66.7320204  11.2831128  41.2766743  65.7907963  11.2794328
  41.6795683  67.0849848  10.6058288  10.6692135  39.4885349  34.6541595
  11.5245450  39.9085259  34.5633483  10.8665597  38.5538626  34.7147584
  89.6452090 102.5739782  74.6018529  90.0591370 103.2358950  74.0479970
  89.4015118 101.8735903  73.9966214  84.6359239  38.3321779  65.6382859
  84.5789573  37.3947065  65.4535330  84.9817298  38.3800714  66.5295518
   1.9880314  71.5913010   9.1099781   1.1056563  71.6822481   9.4696653
   2.1490963  70.6477594   9.1062850  22.3245835  62.5265789  15.1373827
  21.4050770  62.3589945  14.9308503  22.3191690  63.3726358  15.5850363
 101.1697279  38.8371873  49.6843529 100.3016494  39.0258670  49.3278837
 101.7402266  38.7967420  48.9168072 110.8872908  70.4765368  39.4978666
 110.8375645  71.2755156  38.9730835 111.5907007  69.9681807  39.0941119
  17.5253141  34.5816731  39.1695833  18.3108211  34.3850994  39.6800423
  16.8492746  34.0161991  39.5430017  26.0959339  66.3569593  43.7094784
  25.4291916  66.0588789  43.0907440  25.8132100  66.0057688  44.5538521
  59.4455167  73.9923518  89.5258710  58.8866326  74.1348093  90.2897981
  58.8346001  73.9173811  88.7928003 104.3630277  63.2375813  19.7668004
 104.7073106  62.3806763  19.5149767 103.4482156  63.0708551  19.9938500
  30.0830245  61.8819761   5.5273265  30.4684925  61.2439013   6.1277491
  30.3310180  61.5716171   4.6564606 103.6269174  15.1323509   6.6349846
 103.0109356  14.9245763   7.3375714 103.1634735  14.8943722   5.8319801
  18.0095720  25.2972078  14.6765447  18.6133754  25.9577227  15.0162113
  17.5309551  24.9914193  15.4470313  98.6806653  35.3564072   6.0564744
  98.4297584  36.0356784   5.4304814  97.8493701  35.0232029   6.3943428
  61.1813545  45.2416277  14.1411495  60.6876564  44.7655773  13.4734142
  62.0807266  45.2499628  13.8135886  66.3184163  84.5294183  80.4164076
  66.9049594  84.2846554  81.1321521  66.7891952  84.2741960  79.6230209
  12.7267667 100.0308245  78.4955561  13.2954046  99.9658411  79.2627991
  12.5292680  99.1227358  78.2662070  73.5311747   6.1826479  20.6657982
  73.6867571   6.8060535  21.3752985  74.0409184   6.5239400  19.9310124
 100.6609867   1.5597169  80.3659034 100.4930255   2.4522989  80.0637198
 101.0971139   1.1348789  79.6272981 109.2707430  56.6803217  29.0517163
 109.4609375  57.6171589  29.1006136 109.9258377  56.2730312  29.6184587
  58.2484007  59.3094730  12.1229148  57.6079988  59.2422152  12.8311479
  57.7226639  59.4679499  11.3388741  39.7809505  77.3552608   8.8895708
  40.2370596  78.1543303   9.1535521  38.8853598  77.4752092   9.2054218
  21.5247083  57.5205851  16.1035991  22.4171019  57.2576523  16.3288414
  21.3113570  57.0031834  15.3270626 107.2507235  96.3123482  85.3321225
 107.1298215  95.4673212  85.7651824 107.8161523  96.8068188  85.9254378
   1.2699731   2.3779006  16.7998576   2.0160070   1.7808351  16.8562329
   0.5375954   1.8217033  16.5343416  22.3041439  61.5492010  30.1775932
  22.9478359  61.1434364  29.5968628  22.4977732  62.4855423  30.1327610
  20.3976202  45.1987076  26.4381933  20.7975101  45.3933144  25.5905795
  20.8999801  45.7190800  27.0651531  49.9865866  19.6881855  41.1567354
  49.3230247  19.8366511  41.8304396  49.7208548  20.2521658  40.4304171
  -0.0850845  45.1840782  17.7401268   0.4172570  45.1328611  18.5533071
   0.4808513  45.6685591  17.1391046  99.0938422  61.2543856  71.7559827
  99.2512318  60.8756744  70.8910907  98.2140681  60.9589117  71.9903386
  86.8668579  57.2126484   0.3135909  87.8171371  57.1059704   0.3562823
  86.6474245  57.7198076   1.0951723  46.7635298  58.5775566   2.8268036
  46.5967369  58.2779598   1.9331291  47.3488998  59.3277025   2.7226096
 109.1975065  11.1203718  24.3458343 110.0175603  10.9445179  23.8845110
 108.8168950  11.8661368  23.8819361  43.6413145  72.2199869  24.7269964
  43.1154394  72.7454185  24.1239953  44.5356321  72.2973347  24.3946671
 103.5097168 105.6939003  46.6122198 104.1944692 106.3252204  46.3913584
 103.6774776 105.4689496  47.5273609  55.1024243 100.2921599  67.1825540
  55.4456195 100.1921957  66.2946046  55.3995725  99.5078676  67.6438868
  21.2701019  87.2492617  71.6493523  21.1595580  88.1538027  71.9422925
  21.5141949  87.3243945  70.7268513  35.7718682  60.8299732  14.4198012
  34.9578595  60.8903122  13.9198208  35.7445502  61.5804100  15.0133789
   6.0227823  53.6152792  21.3530946   6.4458692  54.1516924  22.0235324
   6.6206932  53.6495543  20.6063938  16.5693247  60.3256369   5.2827591
  17.3667264  60.8367014   5.4212946  16.8351376  59.6231461   4.6893919
  13.2175291  25.8250237  24.9738836  14.1533208  25.6635332  25.0940776
  12.7995265  24.9961281  25.2072048  11.7339587  14.5437169  10.0806141
  11.9166219  13.8770843  10.7427824  11.5883493  14.0475869   9.2750800
  25.3895688  62.7875996  24.7715783  26.0521078  62.2676086  25.2264237
  25.2230263  63.5273218  25.3557944  39.0862536  49.2148495  41.1196041
  38.8581610  50.0252199  41.5751314  39.4277978  49.5037651  40.2733707
 101.6247855  52.8184748  37.9583430 101.7723928  51.9048834  38.2028699
 102.3076592  53.0074930  37.3147678  33.3557034  41.8845510  30.4775906
  34.0665483  41.3161898  30.7740664  33.7732267  42.4911070  29.8660350
  39.5771551  40.8474970   5.9640074  39.7743011  40.0539207   6.4616060
  40.3020000  40.9277058   5.3440100  31.0061884  37.1907902   7.4137694
  31.5662718  37.5644231   8.0941647  30.7441401  37.9412079   6.8804437
 108.4214868  56.1741590   5.8037561 109.2587458  56.6367197   5.8393180
 107.7714400  56.8372822   6.0359925  44.0715790  56.1197519  15.9329998
  44.1641617  55.8520174  15.0186813  44.9611998  56.0835505  16.2844265
  34.8615190  87.2392362  83.0516839  34.5932200  87.1499532  82.1372032
  34.0772399  87.5530761  83.5018427  85.3192374  58.0415746  92.0656407
  86.1386201  58.5362595  92.0772285  84.9682805  58.1387099  92.9508657
   6.1496377  42.1995115  41.3113070   5.3873855  42.4915075  41.8112516
   6.8949807  42.6108837  41.7488813 101.5916263  69.8972607  23.5695219
 100.9227024  70.5060053  23.8828945 102.1619700  70.4317760  23.0170465
 111.5447997  42.6089907  44.1427183 110.9308089  42.3617220  43.4512663
 110.9904331  42.9499340  44.8446226   8.8505352  66.4870167   7.9018855
   8.7968135  67.4070835   7.6433957   9.5581818  66.4600849   8.5458910
  20.1636481  46.4407206  30.1015210  19.2855191  46.6324329  29.7723317
  20.7226205  46.4720345  29.3251181  33.3239841  77.7277946  39.5404553
  34.1316128  77.5225735  40.0114679  33.5663176  78.4398365  38.9484286
 102.3887955  15.1300621   0.4052140 102.2106419  15.6952536  -0.3464853
 102.6921438  15.7282853   1.0881056  11.0125887  56.3093567  47.3856258
  10.9671950  56.5900660  46.4716339  11.9136357  56.0067987  47.4987841
  50.3772974  25.8577490   5.9976083  51.1106491  25.3947544   6.4026552
  50.6636906  26.0202551   5.0988293  52.6990223  51.9643974  22.0929027
  53.3615255  51.6881323  21.4596558  51.9012260  52.0693445  21.5745020
  22.6868725  45.4142427  46.6998911  22.4921131  44.4904995  46.5417814
  23.1743860  45.6923580  45.9245110   8.1202313  94.2740076  88.3669415
   7.6857993  94.5699184  87.5669819   8.0241439  95.0058144  88.9764157
  47.4322748  54.8929930  16.0135770  48.2803965  55.1128483  15.6281018
  47.3169708  55.5304909  16.7182267  35.7603860  61.9271994   9.3782645
  35.5488586  61.7560101   8.4605598  36.5099430  62.5215530   9.3444425
   2.9648682  29.7839880  36.2035918   3.3497778  29.5660281  37.0524573
   2.5316563  28.9778805  35.9229684  38.3752155  62.3513651  37.4672008
  39.2449617  61.9816399  37.6191163  38.3862138  63.1882000  37.9317617
  48.6443996  53.8158464   4.7899985  48.5524464  54.7333193   4.5330623
  47.7449608  53.4992552   4.8737127  25.0185728  37.5946212  16.2977409
  24.5194554  36.7778516  16.2995064  25.8010006  37.3960686  15.7833350
  18.3528900  62.1928596   6.0021216  18.0948675  62.5171423   6.8649626
  19.2810941  61.9781399   6.0946840  84.6251718  10.3876131  88.9229337
  84.2531375   9.6538131  88.4336910  85.3450540  10.7003610  88.3750376
  17.8712654  29.2396760   0.3154118  18.1986880  30.1295590   0.4463004
  18.5313570  28.6791801   0.7232812  19.2595398  58.3255243  12.2490275
  19.3944275  58.6806726  11.3704455  18.3866596  57.9339552  12.2176754
   2.0047814  46.9741201  25.3923106   2.3967293  47.7242565  24.9451995
   2.6760164  46.2929869  25.3507257  98.3548257   9.4780891  90.1747628
  98.2529090  10.0690668  90.9208100  99.3015645   9.3747060  90.0786881
  41.2867683 102.2938221  51.5211237  40.7868570 102.5728386  50.7540071
  40.7143515 102.4874991  52.2634590 108.0951546  44.9348688   8.8265884
 107.3924635  44.9067402   8.1772310 108.7491758  44.3176651   8.4986472
  12.0811474  32.2054410  27.5744557  11.2082386  32.0382667  27.2190452
  11.9248962  32.7450538  28.3494616  16.3645363  56.3916636  26.5729952
  16.0268688  57.2873211  26.5698910  16.9217479  56.3430738  25.7962155
  40.5503845  55.2757883   1.4267193  41.4459133  55.0807571   1.7027973
  39.9992323  54.8507166   2.0838156  21.8854356  41.0372066  48.5398245
  20.9313655  41.1145258  48.5420561  22.0965362  40.7021046  47.6684046
 100.8915423  73.2008505  17.1087027 100.1821278  73.6033964  16.6077816
 100.6519769  73.3477640  18.0237198  38.7497211  54.3653059  52.5467157
  39.4278669  54.8841715  52.9793024  39.1609502  53.5148811  52.3921156
  15.6461060  31.9765997  24.4384956  14.8214602  32.3403835  24.7607565
  15.6703603  32.2209406  23.5133243   0.9004445  92.6962948   7.4588817
   1.5721807  93.3775711   7.4882638   1.0641964  92.2337627   6.6370034
  76.3296766   7.8109758  58.2722867  76.1203244   6.8774478  58.3027780
  75.5670062   8.2402627  58.6599458   2.3052832  24.3743968  23.7807178
   3.2544166  24.3194628  23.6695433   1.9619593  24.4216704  22.8884602
  29.2572141  39.9713516  30.9086442  29.9388003  40.5483484  30.5640459
  28.5389495  40.0473404  30.2805090  89.7080444  29.6040750  36.2011433
  89.1332625  28.8602018  36.3814497  90.5230354  29.2078257  35.8929110
  31.9926596  66.7271137  22.0848489  32.2734404  65.8759356  22.4208379
  31.5107632  66.5213013  21.2838173   2.7314106  20.5372024  20.7542133
   2.3052081  20.6860495  19.9101591   3.6369371  20.3220868  20.5306530
 103.6669455  72.8630972  16.0988379 102.7794073  72.8599024  16.4573026
 103.7100647  72.0738363  15.5589914   3.2316568  54.4734621  20.4052877
   3.5059825  54.8057652  19.5505631   4.0507308  54.2777061  20.8602905
  17.4016678  44.7081518   5.3845739  18.3501434  44.7595453   5.2663219
  17.1176779  45.6204510   5.4419845   4.8295191  67.4650002  32.3843861
   4.2298305  67.9266548  32.9704595   4.2581552  67.0271587  31.7534590
  11.8320131  23.3055401  47.0845270  11.2431765  22.5552273  47.1653557
  11.7990625  23.7293410  47.9421616  96.8538557  46.7198706  34.9497247
  96.7022656  47.1672583  35.7822514  97.0823525  45.8239508  35.1974034
  40.7668400  43.8685369  19.5516884  40.3053427  44.2116737  20.3168750
  41.3618946  43.2083273  19.9070251  37.4577329  93.4289330  88.6446083
  36.8125774  93.8652533  89.2010546  37.2479292  92.4980038  88.7193069
  27.6513982  53.7048244  20.2349114  27.8536153  53.8635397  19.3128753
  27.8047919  54.5474863  20.6622505  34.7099376  31.2198830  18.9980400
  33.7538815  31.1744547  18.9867151  34.9392223  31.6469145  18.1726289
  14.6362603  60.9302664  23.0251956  14.2452955  61.7768621  22.8091931
  14.7258639  60.9439707  23.9780927  28.2579970  18.2631505  43.3715153
  27.8487396  18.1306636  42.5164223  28.1068373  19.1875315  43.5687542
 106.3403927  60.4404306   2.3369023 106.3048737  59.4839048   2.3417079
 105.6886916  60.7010412   1.6860563   8.7235355  45.0026751  14.0003669
   7.8067666  44.8129368  14.1997826   8.7422949  45.1224089  13.0508709
 106.3178705  50.3832722  34.1565204 106.6015618  50.0691462  35.0150514
 107.1141665  50.3805351  33.6253548 106.2680225  21.0337210  43.6298323
 106.6613148  20.3334880  43.1090403 105.9414910  20.5939102  44.4148016
  40.3765965  46.1262369  11.5825522  39.6831155  45.4939556  11.7710662
  40.4953337  46.6034460  12.4037731  31.4309740  75.7898474  51.9441414
  31.9433594  75.8955193  52.7457190  31.9244027  76.2703133  51.2793779
  37.0358729  58.2251167   0.7479533  37.8695917  58.3339643   1.2054421
  37.2822237  58.0457687  -0.1594489  11.0685670  30.7508707  32.5887322
  10.6451976  31.2294936  31.8760538  11.5632236  31.4180160  33.0646133
  28.0424309  52.6502037  48.5951042  27.4752760  51.8936586  48.4460688
  28.1459975  52.6882935  49.5459223  43.7391663  46.1847734  24.1514492
  43.5863543  47.1270847  24.2216706  42.9855061  45.8557653  23.6615705
  52.5505304  43.5465670  13.6991239  53.2916927  43.0134583  13.9867055
  52.3200512  44.0701723  14.4665539  27.6119709  64.0142727  54.6471453
  27.9237795  63.6694908  55.4838848  28.1960893  63.6262751  53.9956093
  55.7092094  51.5344524  21.2875199  55.9521151  52.0043516  20.4897594
  55.4178858  52.2192335  21.8895483   1.4265242   1.7204455  24.7273517
   0.8987036   2.4969274  24.5410371   2.1077549   1.7269227  24.0549564
  10.1784635  12.2667110  30.8954477  10.2271163  13.0507481  30.3484988
  10.2792048  11.5395427  30.2811933  22.3167181  36.6619968   6.3281685
  23.0394793  36.5837383   6.9508439  22.0152664  35.7630372   6.1969078
  44.0911388  53.1127405  41.2312222  43.4988356  52.5892591  40.6914234
  44.7231150  52.4812746  41.5748644  35.4221559  56.7304277  18.2922280
  36.3588285  56.5999222  18.1444204  35.1541710  55.9735489  18.8133311
   2.0485663   8.1642358  65.4772461   1.8128728   8.9646833  65.0082338
   2.9575538   7.9988544  65.2270139  11.2137258  19.0284038   9.3417865
  11.0519361  18.3877814   8.6492121  11.6541755  19.7537661   8.8989705
  31.5566540  47.8843164  37.6688814  30.6624818  47.5719929  37.8072453
  32.0544577  47.0964384  37.4505520  47.7776718  65.6303692   8.1923574
  47.5815535  65.2554846   9.0509772  48.5142088  66.2206936   8.3513248
   0.9764146  15.7734029  81.8573118   1.7586445  15.3330963  81.5249265
   1.2554597  16.6766756  82.0071936  26.2406802  20.1672435  45.5604887
  25.9407330  20.0214767  46.4577150  27.1932077  20.2275586  45.6331968
  79.2246532  20.9749866   5.6749630  78.8977861  20.1732993   5.2666962
  79.1098356  20.8295345   6.6140538  43.9508915  66.1989260  10.7931888
  44.4613218  66.3386154   9.9955773  43.9345837  67.0554447  11.2201965
  51.4998802  93.7751167  78.3653307  50.5942246  93.5694378  78.5970986
  51.4934119  94.7151726  78.1851030  11.6119432  86.3171387  37.8153205
  10.8787894  86.4686298  38.4117842  11.8693137  87.1922016  37.5250530
  88.3205853 101.2869716  30.2954841  87.8294013 100.5079473  30.5564284
  88.9866743 101.3889981  30.9752989  48.1667852  31.8716931  46.7069626
  47.4893713  32.1002984  46.0705042  48.8501167  31.4478922  46.1876488
  15.9894276  31.8001771  18.4458494  16.7634082  31.9543147  18.9875400
  15.2846158  32.2642684  18.8976133  23.9469123  68.9204884   3.5608697
  23.1948805  68.8645363   2.9713371  24.5917821  68.3219051   3.1839460
  81.6981694  82.5246900  90.5353654  81.1847684  82.9338806  91.2319398
  82.5625083  82.9299992  90.6051970  34.5683146  43.3095169  43.7716436
  35.4577422  43.3439398  43.4195566  34.2240691  44.1928482  43.6395311
 108.0697428  60.3325796  11.3290834 108.2896827  61.1627340  10.9063494
 107.7325551  60.5836487  12.1890247  74.5893308  77.0664256  86.8972957
  73.8297030  76.5038841  86.7464829  75.2903625  76.4619749  87.1410716
   4.4129488  32.0650816  24.9802184   5.2092886  32.5728464  25.1359415
   3.8714758  32.6314044  24.4303846   1.7069127  68.9875221  28.0525351
   1.6168836  68.1712389  28.5442758   1.7039944  68.7157965  27.1347189
  94.5552383  78.9268589   6.1857957  95.0418638  78.5080481   6.8957424
  95.2213703  79.1410589   5.5326355   5.8723730  55.4770947  49.6051645
   5.1319319  55.7449484  49.0608931   6.5848339  56.0607147  49.3443584
  31.1456418  46.4691448  23.1287932  30.9774303  46.7857122  24.0163279
  30.7930827  45.5792713  23.1210685  25.3186774  42.6765203  46.8815851
  25.2243543  42.3213577  47.7654409  24.4255233  42.7056122  46.5385723
  24.2011809  65.9233665   3.3033803  24.9470019  65.7814312   3.8863346
  24.5876694  65.9804630   2.4295394 105.1044843   4.1527956  78.3190358
 104.6993992   4.2341821  77.4556041 105.7341168   4.8727624  78.3570254
   1.8237339  54.6317101  17.0493281   2.1298397  53.7862587  17.3775685
   2.3343083  54.7786140  16.2531090  37.9699612   2.8329417  55.4960871
  38.6216450   3.5275173  55.4006577  38.4441113   2.0288850  55.2841711
  30.7905555  59.6039629  52.5254822  30.6711364  59.6607065  53.4735060
  30.0285649  60.0540257  52.1607256 104.8480575  88.7568378  38.5482550
 104.2899083  88.3216000  37.9038382 104.2628609  88.9493275  39.2808676
  16.0596144  34.2038751  14.2790222  16.5831232  33.5803199  13.7756824
  16.3908207  35.0623894  14.0154231  12.2409618  12.1655118  73.8804483
  12.1631503  11.6763687  74.6995401  12.9023099  11.6889012  73.3787584
  65.6092164  99.3947619  87.6073087  64.8814675  98.8693684  87.2747815
  65.3755662  99.5789497  88.5170973  23.0954456 104.9548340  16.4569008
  22.8996468 104.0183163  16.4858437  23.2163858 105.2026749  17.3735130
  18.5764515  41.2501144  39.7724795  18.5403788  41.7508554  40.5874586
  18.4095967  41.8965864  39.0865755  29.4354725  36.2347817  14.4843054
  30.1602936  36.4397645  15.0749385  28.6784768  36.1315370  15.0609577
 108.1378846  29.0628695   7.7942652 109.0168677  28.9526772   7.4316669
 107.6133136  29.3792510   7.0587647   8.1310409  62.1200418  40.9281635
   7.5275868  62.8556442  40.8234262   8.9543778  62.5230455  41.2037325
  33.6170793  45.7387209  36.6918468  33.3043337  44.8481464  36.8509007
  33.9654326  45.7146454  35.8006096   0.1865664  52.3268938  27.9140019
   0.1348057  51.7802668  27.1299410   0.8962104  51.9417238  28.4280849
  45.1348686  71.2748146  62.6462317  45.7790852  71.8052864  62.1773815
  44.5914221  71.9121456  63.1095982  37.7894449  41.5399361  39.9846029
  37.9105449  41.4834023  39.0367794  37.9929066  40.6611586  40.3048944
  87.5094471  33.3228796  75.7099784  87.3559544  34.2322366  75.4535890
  88.2842300  33.3596723  76.2708605   4.4142848  63.3992290   1.9832188
   4.3203497  63.4945822   2.9310143   4.0544757  62.5329018   1.7928247
  28.3064055  79.3675041   3.4841236  28.9204764  79.6073818   4.1781026
  27.5876594  79.9933338   3.5734344 108.5347793  12.8464906  87.6849196
 108.1917570  12.2576015  88.3570624 109.2974255  12.3884122  87.3316968
  18.0120778  51.1310291  13.9048672  18.1011319  50.2320290  14.2212558
  18.0247760  51.0516214  12.9510510  67.1426245 101.8212193  89.9908799
  67.7482316 102.5333851  89.7852367  66.6222593 101.7119711  89.1949419
  78.1370456  16.7622726  82.8407443  77.2509063  16.8104093  83.1994528
  78.4927765  17.6425664  82.9622782  48.6824036  77.6962042  24.4921064
  48.6724520  78.6507082  24.5632672  47.9229212  77.4886799  23.9477277
  25.3841496  63.9679670  13.1700265  24.9895406  63.6799192  12.3468959
  25.3364992  64.9234104  13.1370449  36.5147328  37.6835728   5.1304209
  35.8476710  36.9971585   5.1206481  36.1017871  38.4122777   5.5937731
  40.6224203  67.8159285  43.5189295  39.6729469  67.7550793  43.4138918
  40.9520292  66.9715881  43.2112312  12.5895261   2.5227182  64.1360009
  13.0189895   2.5736301  63.2820690  12.5116729   1.5845792  64.3093932
  39.2572904 103.0751419  32.4954057  39.1326761 102.1419334  32.3226762
  39.9963903 103.3247757  31.9407487  27.7460122  56.9885778  20.2431536
  26.9670749  56.9866991  19.6868384  27.4487734  56.6147709  21.0727024
  29.1508269  81.3408184  19.1917348  29.4367719  81.6371346  18.3276391
  28.3943367  81.8908215  19.3953276   1.4625835  55.8441846  89.6706048
   0.7596206  55.3530710  90.0959117   1.2090515  55.8750074  88.7481064
  19.4825518  41.2967825  36.8810964  20.4350638  41.3625145  36.9491529
  19.1582096  42.1113777  37.2651148   2.7398538  59.4757192  92.3498544
   3.0973529  60.3259962  92.6057166   2.5926875  59.5516603  91.4070893
  95.4703735  71.6455364  10.5768132  96.2524818  71.2209368  10.2243209
  95.7578157  72.0258760  11.4068437  37.4205041  85.2645683  34.1080356
  36.8576455  84.4959259  34.0152144  37.9866815  85.0584221  34.8517942
  88.9968691   8.0815809  68.9447773  88.3423529   7.4221914  68.7144626
  89.7877584   7.5774353  69.1359914  14.5334125  61.4855671   6.8825150
  15.3492117  60.9980440   6.7683780  14.2609274  61.7082596   5.9923518
  39.7128367  81.8731308  29.2226291  40.3821373  81.9260311  28.5403728
  39.6859097  82.7522087  29.6004105  16.5171552  57.7392006  33.2796073
  16.6968513  58.6482716  33.0397391  15.8364666  57.7984428  33.9499688
 109.6023346  59.5715332  -0.0291073 108.8495265  59.3761778   0.5288786
 110.3243466  59.7122192   0.5833789  23.7218714  52.1343899  35.4869246
  24.0956736  52.4142551  36.3224959  23.1220388  52.8398752  35.2445960
  12.5949085  68.3166027  30.3520942  13.0067682  67.7248096  30.9816837
  12.2723174  69.0446138  30.8832884  23.2852578  83.0177307  48.3705616
  22.5713491  82.8458786  48.9845896  23.1694961  83.9340115  48.1190443
  30.6074190  46.3073349  30.4683375  31.1860585  46.8081284  29.8933458
  29.9680066  46.9473457  30.7810140  24.0209055  51.4920998   7.3533088
  23.1817174  51.9261026   7.5070530  24.3833923  51.9362926   6.5868050
  85.1460550  31.2723558  88.4269360  84.4994233  31.8791597  88.0665425
  85.6909583  31.8141763  88.9976734  81.1485526 101.2201422  63.4592665
  81.8832585 101.7931431  63.6785972  81.5517947 100.4707211  63.0210913
  79.0577895   7.9082744  88.5510505  78.9460886   8.8569849  88.6119005
  78.3760134   7.6254337  87.9416111 112.7519951  61.6299057  18.1616557
 113.3108269  60.9800100  17.7355385 111.8825752  61.4779949  17.7911639
  30.4199266  16.2387245  89.9834535  29.7880887  16.3680809  89.2761490
  29.8862361  16.1989992  90.7770700  77.1194383 104.1991346  83.8125182
  77.4754092 105.0330561  83.5057855  76.5540764 104.4359654  84.5477116
  32.1190453  49.7554302  12.0845461  33.0536342  49.7740889  11.8785584
  31.9879794  50.5009747  12.6703954  23.8420105  51.3726282  24.6091914
  24.4536710  51.8823767  25.1404715  22.9775667  51.6114616  24.9437404
  47.5501299  21.7835116  14.7853315  48.4407043  22.0865870  14.9621224
  47.5252056  20.8942342  15.1385963  15.2765262  69.2179060  26.7074037
  15.9315467  69.8141146  27.0703316  15.6056321  68.3439493  26.9174433
  35.8182049  44.1180468   6.1809880  35.9605575  43.3281469   5.6594324
  35.7976961  43.8070202   7.0860147  13.6525881  63.1073046  21.4545751
  14.4135392  62.6673460  21.0756016  13.8009953  64.0364599  21.2788391
  24.5822263  58.3260918  20.4993224  24.0311813  57.6338911  20.1340342
  23.9656329  59.0094233  20.7621980  38.5884047  53.2536650   1.7317878
  38.2138562  53.1501341   2.6065600  37.8754473  53.0211544   1.1369243
  41.4761209  61.6162729  47.7242517  41.6826296  61.1577559  46.9097900
  42.3273039  61.7742348  48.1326294  33.1007981  69.0022373  40.4741669
  32.2690415  69.2124033  40.8987188  33.2576799  68.0843782  40.6958771
  13.2666230  94.4181252  16.0561025  12.3436761  94.6682072  16.0992384
  13.2550120  93.4611225  16.0410607  26.3081884  78.0283499  10.5814743
  26.9355488  77.8670502  11.2861967  25.4742885  78.1674671  11.0303521
  43.0452490  37.0506620  39.2705512  42.8830481  37.9255271  38.9176583
  42.4789524  36.9940662  40.0401831  26.5973639  20.4289579  20.9364724
  26.0021973  20.1040745  21.6120911  26.4696980  21.3775969  20.9408450
  89.7474764  82.6779652   9.6091777  90.5524109  83.1798363   9.7373652
  89.1465567  83.2925320   9.1879505  39.6705341  77.0297718  14.3187606
  39.1900611  76.2750530  14.6590161  39.0661526  77.4391699  13.6996078
  38.1631637  33.9487839  39.8442721  37.6683402  33.1447387  40.0020552
  38.9960122  33.6497545  39.4793367  49.4787693  48.1797504   8.4035975
  49.5270538  47.2241592   8.3762276  50.3494024  48.4554434   8.6903471
 111.0333013  36.2113595  34.4489193 111.2562321  36.6162419  35.2871346
 111.8786983  36.0046268  34.0504265  34.1500568  60.3709078  30.5309534
  34.6378374  60.2398014  29.7178626  33.3735347  59.8193359  30.4360080
  42.5513554  26.8544698  31.5871716  42.5095081  26.8353629  30.6310797
  42.9493475  26.0174131  31.8262720  41.4777374  61.5618229   4.3173668
  40.9563875  60.8226967   4.6306065  41.9736481  61.2090826   3.5785300
  38.4264922  67.9327011  15.1060152  38.4227538  68.5785294  15.8124995
  38.4887719  67.0887470  15.5533338  27.2766447  42.5431299   9.3190199
  26.3442087  42.3846865   9.4662988  27.6945639  42.2980165  10.1445472
  39.1546154  75.4638004   6.7593372  39.0257907  76.1187792   6.0733062
  39.4888806  75.9612513   7.5056887  42.4932530 105.6810635  89.1720942
  42.5411197 106.5632933  88.8038397  42.3685440 105.1111906  88.4131974
  93.8648125  95.8611792  80.9817458  94.2121693  95.0548904  80.6003309
  93.3559272  95.5686157  81.7378354  42.9382181  56.5611839  28.9897585
  43.5222340  57.3091173  28.8642478  42.9006004  56.4433098  29.9389267
  13.7654805  95.0271988  32.0871711  14.3556523  94.7603607  32.7919602
  13.8898039  95.9736252  32.0160961  22.2462559  87.6853943  27.4560833
  23.0845690  88.0771255  27.7010512  22.4497318  86.7635059  27.2980857
  15.9694576  74.4355822  21.7570210  16.8100655  74.1599798  22.1226072
  16.0470021  74.2600107  20.8192611   7.4396902  64.0164757   3.2824266
   7.0546508  63.5313034   4.0122089   8.0213034  64.6529055   3.6982542
  52.7754498  66.8943644  16.4679945  53.3966732  67.0682669  15.7608390
  53.0308342  67.4985361  17.1651244  13.6823928  42.1026373  40.4033709
  13.6672628  41.8389845  39.4833207  14.2595065  42.8660059  40.4243135
  31.0801673  70.9982920  22.2702122  30.6657553  70.1401901  22.1799254
  31.8334818  70.8417463  22.8396320  65.3106543  95.6163328  72.8077770
  65.4422209  94.9144190  73.4451449  65.6488225  95.2602642  71.9861400
 110.1214100  99.4523335  45.8674717 110.9016363  99.6057415  45.3346062
 109.4339977  99.9612617  45.4377079  45.4827404  71.7096376  21.0623598
  45.9621859  71.4549351  20.2740145  45.1721048  72.5960350  20.8778739
  91.1385176  12.9355018  75.7832194  90.6699131  13.7603872  75.9105194
  90.8572004  12.6309030  74.9204862  92.4259422  41.2070291  83.3591396
  93.0058394  41.5030401  82.6574809  93.0021248  40.7423513  83.9660383
  65.5153868  34.4094770  86.8308711  65.6761769  34.7601812  85.9548652
  66.3846532  34.1828935  87.1614218 105.8568583  70.9658432  51.8887138
 105.1834337  70.3666401  51.5667105 106.3310061  71.2378359  51.1029434
   7.4966429  82.3605149  84.1430855   6.9123171  82.5172513  83.4013129
   8.3694552  82.5658053  83.8079840   4.0611219  46.8785143  45.6468344
   3.4907803  46.1124897  45.7112360   4.0207741  47.2807884  46.5144634
   6.6943413  21.5386081  25.1191211   7.0398140  22.0228863  25.8690262
   6.1604053  22.1774316  24.6468401  18.1109357  76.5031195  49.4505215
  18.9629638  76.1011744  49.6199846  17.8065372  76.7910862  50.3111315
  28.6523485  64.1550589  27.7297664  28.4959173  65.0721931  27.9547620
  29.0034628  63.7682056  28.5318232  79.4649266  40.0568914  34.7135162
  80.2126645  40.5831575  34.4303894  79.1352056  40.5078888  35.4907656
  19.0394342  26.9098997  10.2562010  19.2769766  26.7181969   9.3489760
  19.7765136  26.5817523  10.7712388  23.7661672  53.6213303  39.4137645
  23.8034678  53.9523935  40.3111124  24.6342921  53.2487106  39.2596650
  78.4912157  87.3289204  19.0531397  78.4898615  86.8273258  19.8683894
  78.4172106  88.2412624  19.3331301   6.7293149  33.4342670  17.0614362
   5.9096885  33.4524775  17.5555134   6.5841258  34.0395451  16.3342547
  97.5566433   6.8804758  90.6656097  96.9681332   6.7122190  89.9296892
  97.9388163   7.7372615  90.4756275  34.7442126  63.0238819  18.5616493
  33.7973619  63.0224133  18.7020242  34.9370432  62.1507645  18.2200146
   8.0002820  59.0336323  34.1243172   8.1617200  58.1802607  34.5267153
   8.8043249  59.2271137  33.6423302  77.0684405   0.3460281  55.8940161
  76.2996691   0.4996984  55.3448284  76.7128978   0.2188747  56.7735923
  40.5501556  89.4178867  32.5367498  40.8995485  90.2336025  32.1779180
  39.6453190  89.6265793  32.7690268  23.2053685  84.2172909  41.3045740
  23.5427308  85.0339985  40.9365845  22.5211263  84.4938660  41.9141197
  22.0719361  63.9928293   7.7977568  22.0284772  63.2467461   7.1996778
  22.3049974  64.7343493   7.2391284  44.5268965  44.6109724   2.2567736
  45.1773882  43.9089870   2.2391129  43.7789440  44.2565727   1.7759363
  35.1599288  65.5477619  20.8531523  35.2615261  65.6767178  21.7961669
  34.2559838  65.2510118  20.7480049  26.6451359  73.2882118   3.4998000
  26.8152714  74.0940046   3.0119655  26.5208173  72.6211882   2.8246278
   9.6338165  99.9114513  22.6812172   9.2525059 100.6219196  22.1653986
  10.5732453 100.0950241  22.6840615  41.2906504  54.8285818   4.9809694
  41.2717772  53.9306974   4.6497905  40.3993464  54.9881601   5.2913684
 101.0461257   7.6116006  87.8767762 101.9393966   7.9235141  88.0217073
 101.1224411   6.6574495  87.8780285   5.9538335  55.9867764  35.3534842
   5.8230621  55.5978775  34.4886780   6.8547153  56.3098478  35.3370762
  94.8156367  57.6801395  26.3096523  95.4522251  57.0561075  25.9609795
  95.3049086  58.4982777  26.3962173  27.0815396  59.7947454   3.6472017
  27.6725554  59.5073652   4.3431497  26.8462276  58.9900541   3.1853238
  17.8955567 105.3055191   3.1602761  17.1808708 104.9459171   2.6347807
  18.6104476 105.4334450   2.5367403  32.6855016  70.5596018  37.7857971
  31.8556261  70.7359362  38.2290220  32.7129006  69.6067429  37.6989293
  38.5838056  57.9778099  28.9036369  38.7997746  57.0841789  29.1701078
  38.5546303  57.9422140  27.9475451  12.2452641  46.2592745  20.4051185
  12.6143050  47.1053648  20.1517963  12.9722321  45.6435013  20.3125191
  40.7785034  56.5412569  20.7477784  41.4187384  57.0235968  21.2709260
  40.1325321  57.1999788  20.4927516 109.0937899  54.9942017   8.8420212
 108.6621599  55.3588724   8.0693996 108.7329690  54.1113758   8.9236438
  19.7224653  81.7928505  16.6895616  19.0731394  81.4255047  17.2892833
  20.4573488  82.0367146  17.2523260  37.7239037  70.3317499  34.5100832
  37.4232459  69.7370052  35.1971889  36.9263315  70.7580471  34.1964221
  89.7978113  63.8274972  80.3492594  89.9536655  62.9923170  79.9083340
  89.2924914  64.3406026  79.7186983  57.2747931 106.1031216  87.2534764
  56.6579768 106.3072270  87.9564047  56.8142471 106.3500326  86.4515019
  22.9696226  82.6736832  16.0733080  23.1946206  82.1986103  15.2733600
  22.8572083  83.5809040  15.7895064  27.4696112  67.9245996   3.5920262
  27.5154614  67.2673798   4.2864269  28.1936455  67.7046013   3.0058455
  51.2409258  93.5841465  23.7143803  50.4975891  94.1843128  23.6553311
  52.0066977  94.1344166  23.5499859  29.8612714  77.8615427  31.8505573
  30.7889509  77.6886415  32.0110297  29.4018483  77.3111773  32.4847937
  32.3824382  94.0842628  15.7738900  31.8921304  93.2624912  15.7967806
  31.9717169  94.6270466  16.4468861   8.4218490  41.0854912   4.5128238
   8.9169264  40.6061459   5.1771748   7.9272771  41.7387724   5.0076473
  15.2571166  70.4498768  30.3071475  14.7157657  70.2285910  31.0649085
  16.1345804  70.5758953  30.6682634   8.7573534  63.6392784  37.3728108
   9.0570801  64.4415045  36.9452262   8.5657281  63.0404186  36.6510916
  23.6471272  41.5092611  19.4561481  23.8805842  40.9404755  20.1897788
  23.6358309  40.9274387  18.6961555  20.2587199  40.1925516  29.9503970
  19.4069004  40.6007528  30.1053476  20.2801180  39.4475675  30.5510426
  42.0848179  81.1174488  37.8861237  41.4834738  80.5490685  37.4049211
  42.0243740  81.9622803  37.4402046  14.5593131  87.1746445   5.3093398
  14.7794092  87.6676083   4.5189121  15.3227079  87.2793102   5.8772349
  18.8257169  16.3290994  91.6755839  19.5171880  16.3962381  91.0171078
  18.7384795  15.3895395  91.8363484  36.4864635  87.1802998  19.0006828
  35.8864474  86.9511604  18.2909596  36.8868947  88.0030155  18.7195599
  19.0138972  60.2001333  37.8169799  19.3556643  59.5466948  37.2066951
  19.5324361  60.0792789  38.6124301  46.2870264  93.3594322  48.2549953
  45.4522324  93.6590099  47.8949881  46.1954546  92.4083710  48.3127356
  36.3067675  43.6872101  62.3998451  36.7488265  43.3546448  61.6186810
  35.6558084  44.3027925  62.0628834  39.3329668  74.7574472  19.4377947
  39.9597883  75.3523684  19.8493695  39.1699433  74.0857458  20.0999689
  51.9020462  48.3217621  13.9776266  52.0863008  48.2348537  14.9128962
  52.1946430  47.4932671  13.5978687  17.3042607  94.1583061  45.4078484
  18.0613303  94.6524525  45.0933647  17.4082839  94.1404533  46.3592100
  48.1480074  27.2498894  12.5328279  48.7553406  27.9152846  12.2093666
  48.6624670  26.7399383  13.1585348  37.3717284  54.8774004  24.5488524
  37.9974270  54.9943161  23.8339663  37.7528286  54.1859293  25.0900173
  97.9906842  89.4012635  84.5839960  98.8166806  89.5604365  84.1272438
  97.3790833  89.1493218  83.8921106  36.2132812  46.4932299  22.7092075
  36.8233037  46.3322544  23.4290624  36.7747712  46.6718912  21.9548583
  57.4716282  14.1229188  12.4703503  57.1252441  13.8189220  11.6314030
  56.6954613  14.2692173  13.0110800  37.5807452  80.1045132  56.9815445
  36.7039800  79.9745131  56.6201353  37.4814677  80.8327389  57.5947857
  10.1522708  75.5004978  10.8991551  11.1008823  75.4248810  10.7959557
   9.9694747  76.4296579  10.7596016  29.2450809  89.6162605  14.9205685
  28.7640214  89.7481251  14.1036069  28.6143041  89.8320198  15.6074464
  27.4290872  56.6471052   7.2479451  27.7370143  56.7615414   8.1470096
  27.7235889  57.4353838   6.7917454  33.9367461  21.0226583  17.9877603
  32.9880571  20.9422779  17.8889823  34.2956543  20.3498268  17.4092138
  25.4280948   5.6011074  85.0019723  25.1470899   5.0445430  85.7282669
  26.3676690   5.4360216  84.9233306  27.6860189  54.2405653  34.0346146
  27.1235895  54.7521687  33.4530926  28.1278372  53.6197042  33.4553385
  11.9074905  54.0404987  28.0969667  11.9271493  53.9293051  29.0474844
  12.7860916  54.3476963  27.8735352   7.7424324  39.3471289  43.7751150
   8.3001256  39.5310497  43.0192184   6.9133514  39.0556240  43.3957958
  29.0089059 103.1916142  21.9860506  28.7939596 103.9526367  21.4467144
  29.9601460 103.2296467  22.0856905  98.2149790  64.3089342  58.5072279
  98.2613109  63.6318827  57.8321838  98.4783708  63.8629818  59.3122053
   3.5396552  64.4913197  32.2067308   3.4852004  65.1429367  31.5076876
   4.4649932  64.2481565  32.2359443  11.2896299  49.4446676  80.4903221
  10.8643340  50.2333467  80.1536632  11.0875796  48.7688272  79.8432935
  30.5198121  40.0003290  19.7796357  30.0002360  40.6229782  19.2711318
  30.5471134  40.3741932  20.6603813  29.5270038  59.8205519  28.7834525
  28.8251591  59.5902205  28.1746864  30.1668119  60.2872849  28.2458258
  25.8369780  66.5892267  18.4864271  26.0986042  67.4682426  18.7605011
  25.2667308  66.2788343  19.1897810  37.1529126  63.9942789  19.3640304
  36.3124919  63.5733652  19.1830456  36.9585967  64.6313334  20.0515175
  29.0702033  76.7722082  34.0988207  28.8085842  75.9009171  34.3965507
  29.9233246  76.9187832  34.5073938  44.6271546   3.8389301  44.9380922
  44.0214027   3.1056308  44.8305321  44.0611667   4.6020317  45.0545597
  12.9073441  50.5022764  36.7903519  13.8066459  50.2445698  36.5876818
  12.8599679  50.4750299  37.7459884  37.6257229  44.0664291  21.5844297
  36.7169738  44.3285275  21.7317796  37.5850821  43.1174755  21.4658356
  46.0237074  54.8955154   7.5622010  46.4374208  55.7442141   7.4047965
  45.0903130  55.0941849   7.6366389  83.5784814 103.2818764  86.1360580
  83.5570142 102.9730099  87.0418024  84.2510792 102.7457445  85.7160539
  49.6338272 100.4790115  16.3185561  50.1708078  99.9371243  15.7404160
  48.7489462 100.1266098  16.2235332  65.4772922 102.9226130  83.7034500
  65.6471965 102.1160620  84.1901148  66.2573668 103.0446737  83.1623221
  44.3366194  53.3536196   3.5525090  45.0298166  52.7587080   3.2665232
  43.5980272  52.7801037   3.7569451  37.3336577  77.6531839  32.2982287
  37.4140072  76.7714882  32.6620770  37.3788333  77.5262547  31.3505602
  10.4980767  99.6070480  46.4569807   9.8101169  99.2209339  46.9990683
  10.1346231  99.6051788  45.5714703  86.8551728 103.9682596  92.5809443
  86.7622325 103.8799542  91.6323679  86.1875292 103.3852547  92.9423181
  20.6905364   8.1805484  86.6620547  19.8823117   8.3218257  87.1550441
  20.7996225   8.9798276  86.1468011  30.7252192  77.0114899  25.9027338
  31.3079548  76.4295578  25.4148722  29.8887229  76.5468597  25.9277105
  34.9276710  73.9220476   8.4661609  35.4266453  74.5662928   7.9639602
  35.1501870  74.1053534   9.3789136   5.3103494  38.5327928  77.0173192
   5.1083755  38.6778753  77.9416514   6.0755681  37.9578226  77.0267415
  27.6247597  51.3345480  11.5786505  27.5338173  52.2854710  11.5178156
  26.8722963  50.9906912  11.0972023  60.4943940 105.1794451  90.2463016
  60.2923867 105.8652275  89.6098042  59.7038886 104.6405476  90.2767550
  51.1915636  43.2251978  24.8009396  50.5010509  43.8503695  25.0213742
  51.4755535  43.4815311  23.9235139  15.5789566  91.7059040   9.2477685
  15.6951511  91.6527462  10.1964021  15.1857769  90.8669758   9.0072477
  45.7105589  69.5418310  16.7351913  45.1542330  68.7852716  16.5498400
  46.3820839  69.5180750  16.0534871  19.2182231  79.2877245  11.0193765
  18.5078347  79.5241880  11.6157544  18.8756704  78.5456705  10.5211353
  24.4135261  52.8070068  56.4803362  23.7192202  52.2866392  56.8845510
  24.9334764  53.1266165  57.2177172  74.8439213 100.6751078  90.5126430
  75.0802752 100.2006500  89.7156102  75.6337210 100.6447332  91.0525745
  22.1436548  56.3166809  42.8129435  22.8048015  56.8379211  43.2683849
  21.3195109  56.7722988  42.9844952  98.2835389   6.1965274  36.2951851
  97.8345395   5.6512546  35.6491899  99.1243173   5.7604980  36.4337468
  32.7197313  63.9225626  21.5058804  32.8397822  63.3225441  20.7698083
  33.1973052  63.5143185  22.2280216  52.9952765  88.1528950  19.0884566
  53.6436033  88.8344574  18.9113021  52.3675346  88.5674858  19.6803045
 103.0410789  74.5065928  24.9986005 102.6520239  75.0475550  25.6857920
 103.5964142  73.8847685  25.4688859   9.2263936   8.3954542  30.9941233
   9.5485400   8.7654226  30.1721895   8.2740878   8.4709947  30.9338081
  18.9764202   4.3089198  11.1647320  19.6531082   4.4597244  10.5047441
  18.2578207   3.9004897  10.6819975  37.3109913  46.8118477  45.6941032
  37.9008532  46.7286396  46.4433527  36.7605424  46.0298014  45.7346153
  29.8307920  53.9950371  13.5152936  29.9369669  54.6549463  12.8301096
  29.4786930  54.4795418  14.2619610  81.9769379  91.4064949  90.2239032
  82.5450274  91.7297953  89.5246321  82.3806378  91.7299598  91.0292784
  36.7580312  91.6835111  92.3571507  36.3179137  92.3170560  91.7904495
  37.3481719  92.2121065  92.8943236  36.9333529  54.2539215  29.8595977
  37.8055024  54.6450901  29.9103308  36.5982604  54.2988110  30.7551003
  15.4444408  74.9464321  30.7062936  16.2369609  74.5135736  30.3888392
  15.6988502  75.8628988  30.8139777  56.1086559  55.5524015   0.6220413
  56.0324907  54.7365952   1.1169110  55.7046890  55.3581047  -0.2237070
  10.7356310  54.2605448   9.4758403  11.5112722  53.7025690   9.5330441
  11.0323536  55.0348759   8.9977181  16.3124216  72.3797512  46.5099764
  15.3696883  72.5432301  46.5375471  16.7085087  73.2274246  46.7119694
  42.1135235  71.2169647  20.7383728  42.5444889  70.9952307  19.9129426
  41.9452286  70.3719091  21.1552572 101.6051791  23.9105766  76.2025774
 101.8761537  23.8926952  75.2847076 102.2376893  24.4896715  76.6277993
  59.5699120 100.5541801  16.3668311  60.4665232 100.4516888  16.6859126
  59.0576982  99.9371433  16.8894541  67.8142595  34.3728685   5.5738437
  68.3844662  35.1386189   5.6425399  67.8683758  34.1157484   4.6534127
  23.6502194  65.6961775   6.3104367  23.1629944  66.0725164   5.5774879
  24.5641232  65.7173920   6.0266072 100.2474139  20.1933782  84.3392974
 100.6360600  20.8646982  84.9001158  99.6399758  20.6736104  83.7765998
  96.3232705  97.5131529  74.8137415  96.1314294  98.4029835  75.1097644
  95.9368941  96.9492882  75.4838181  46.5001822  51.1255884   5.8186597
  46.6180944  51.5379190   4.9629074  45.5799770  51.2783813   6.0333896
   6.4030790   9.4547002  70.7774103   5.6474828   9.4114749  71.3634456
   7.0111608  10.0510805  71.2142170  21.4089775  61.8804502  46.2591028
  21.5397954  62.4711132  45.5173206  21.8456221  62.3153830  46.9915009
 107.1462379  25.1298738  23.4488273 107.7689968  25.5266571  22.8397560
 106.6103612  24.5547557  22.9026532  30.6346321  52.0832205   3.2239634
  31.0984659  52.8144169   2.8159910  30.3890252  52.4086761   4.0899816
  16.4644479   5.5996339  66.3747728  15.5591869   5.2895038  66.3513434
  16.7071008   5.7001226  65.4543102  26.6574502  52.3218489   4.1403437
  26.7087054  52.2156382   3.1904361  25.7323194  52.4974918   4.3121380
  38.5974789  15.8976364  41.7970657  39.2920709  16.5522742  41.8693495
  39.0339875  15.1235425  41.4414406  42.2633266  28.2522345  66.3400221
  42.2833633  27.9041004  65.4485989  41.6030264  28.9446545  66.3119507
  47.0334196  52.4135256   8.0539179  46.7528725  52.0426130   7.2172880
  46.8261147  53.3454132   7.9843169  47.8277254  52.4879456  32.9202461
  47.6097393  52.8886986  33.7617373  47.0273972  52.5696421  32.4015665
 112.2754142  38.4466379  89.3921334 111.5455577  38.2650774  88.8000366
 112.2027085  39.3819635  89.5821497  89.9777875  48.6625879  83.3439327
  89.6275792  48.1410234  84.0661246  89.3942974  48.4756391  82.6085258
  67.6167202  44.7334051  20.9842944  67.5318527  43.7807846  21.0235286
  67.1198893  45.0494099  21.7389679 106.1584256   6.8050592  77.2037173
 105.7997367   6.8559568  78.0897105 106.9445584   7.3504322  77.2318852
  25.2291512  78.5344648   8.2220793  25.7395244  78.3410788   9.0084320
  25.8846068  78.7429142   7.5563771  47.9867601  67.7790594  10.9999406
  47.7560902  66.8512106  10.9538805  48.8566303  67.7900696  11.3992381
  25.7694912  66.6557550  37.3680472  26.5609074  66.4548922  36.8685007
  25.7296371  67.6120567  37.3793268 102.4542139  31.5492551  88.1234673
 102.0629070  31.0344427  87.4177176 103.2945058  31.1233728  88.2930705
  47.9208660  79.8793268  35.9989738  47.5183630  79.8172474  36.8652129
  48.5622454  79.1690016  35.9814286  69.9206066  61.9741488  35.1866579
  70.0413370  62.6956272  34.5693064  70.6720734  62.0352697  35.7764030
   1.9484732 106.5135670  31.3941646   2.5399777 106.1813927  30.7188773
   1.5939981 107.3225498  31.0252237  45.9090424  77.4688721   1.5881394
  46.3221931  77.0300341   2.3317529  46.5991735  77.5204945   0.9268622
  32.7090168  77.4860048  17.0417202  32.2425556  76.7465353  16.6520679
  33.0247092  77.1540308  17.8821766  76.7735815  45.1303196  26.3852239
  77.2202539  45.2753067  27.2193074  77.4029827  44.6371698  25.8590221
  52.1448374  76.0600567  37.1953964  51.9538689  75.5444050  37.9788899
  51.3740873  75.9454393  36.6394830 112.8065178  10.2095954  83.0313588
 112.0327494  10.4338138  82.5144053 113.3189151  11.0176485  83.0583722
   9.5812558  11.9774883  88.1352908  10.5304240  12.0858924  88.0756817
   9.2251777  12.6843612  87.5969860  48.2542849  86.7245197  23.3943748
  48.6583090  85.8568001  23.3857870  47.3624897  86.5704060  23.7061143
 109.8717098  94.3944550  10.8388638 109.5322384  94.2914581  11.7278981
 109.6871205  93.5570717  10.4134846  23.7535644  53.0036306  11.9678032
  24.5823121  53.4442997  11.7801356  23.4649539  53.3801937  12.7991486
  37.4721408  41.9625378  52.7931499  37.2633243  41.3849831  53.5273552
  37.9353356  42.6991224  53.1920576  46.1105299  69.6291208  10.3131521
  46.6567278  68.8681269  10.5100870  45.7050180  69.4214821   9.4713211
  31.8510294  72.9214859  17.7337050  31.5515113  73.8202572  17.5968647
  32.7616382  72.9249525  17.4387288  11.4510369  83.6663914  25.1387215
  11.5921116  83.3106232  26.0160828  11.3173044  82.8960323  24.5865440
  36.8851972  67.3993206   2.5314346  37.3247433  67.7799129   1.7710510
  36.0517550  67.8669834   2.5852400  83.4353987   9.5502346  86.1022908
  82.5377516   9.3805568  85.8165104  83.9035455   9.7777336  85.2989769
  31.3893533  74.8995209  13.8293898  31.6885018  75.7001877  13.3984876
  31.4056420  74.2359400  13.1397343  52.8750957   6.0700797   0.8295461
  53.3921421   5.9614276   1.6277242  53.5228182   6.2425041   0.1462021
  64.8624086  77.5426769   6.7407179  65.6398249  77.2199631   6.2849653
  64.9840784  77.2642946   7.6484245  27.7308226 104.2309380  54.4155359
  27.8520346 104.0225983  55.3418922  28.2856369 103.6021137  53.9540291
  98.4963366 105.2045363  75.6901038  98.4149834 105.0471752  76.6307700
  97.5945088 105.3037279  75.3849829  29.9874234  37.1796370   1.3620549
  29.0948582  37.1454763   1.7061326  29.8790622  37.3973298   0.4362583
  54.3613148  80.2292156   6.2351346  54.9080706  79.5021009   5.9374857
  53.6496687  80.2708912   5.5963433  22.0773339  99.0400410  13.3732235
  22.4034905  98.6704254  14.1937327  21.3716149  98.4500122  13.1085432
  21.8213797  60.1852798  32.9732943  21.2286997  60.2008820  33.7247705
  21.3915396  59.6091938  32.3411655  30.2717447  57.4697828  32.6622987
  30.2866197  58.4136820  32.8206110  31.0372400  57.3072863  32.1110797
   4.7323083  31.9694822  80.1624954   4.2650222  31.4662473  79.4956947
   4.2975425  31.7403715  80.9839082  49.1997910  71.8563509  23.0751777
  48.7061548  72.6275206  23.3542013  49.1156864  71.8502140  22.1216989
   8.1212472  38.1122797  72.6560772   7.3874997  37.6747434  73.0878318
   7.7188014  38.8330572  72.1715582  57.3365545  49.4986057  32.2938728
  57.0929718  49.9435377  31.4821243  56.8182850  48.6938572  32.2907281
  82.8564072  74.1343641  34.2679572  82.1131134  74.3659019  33.7110496
  82.9800034  74.8977518  34.8320436 100.3552697  24.2334621  87.1162021
  99.8583505  24.9592321  86.7386258  99.7168753  23.7562149  87.6462195
  45.5362606  50.5135632  18.2268095  45.5116320  51.1699772  18.9230466
  46.0552835  50.9199381  17.5327563  51.3095511   8.6973762  40.2434921
  52.0524121   9.0738105  39.7715902  50.5858529   8.7323474  39.6179724
  62.3842382 101.8355083  24.6689939  61.5891600 102.2207451  25.0373387
  63.0728006 102.4693108  24.8699832  76.1469936  86.8182278  17.8028083
  76.8636274  87.0883942  18.3769894  75.3651428  87.2041702  18.1977618
  30.5435586  43.4528351  43.5481977  30.1639462  42.9723597  42.8124905
  31.3243914  42.9519320  43.7840509  45.6156540  78.1271172  51.1591053
  45.0513649  77.3762226  51.3434029  45.2154303  78.8513136  51.6403437
  19.2390215  99.7356510  40.6685209  19.3270063  99.5841980  39.7274852
  18.3622515 100.1059151  40.7705784   7.1338843  56.1412160  85.2255822
   7.1110629  56.8530958  84.5861060   7.3439740  56.5707605  86.0547871
  72.6491404  84.6991730  19.4434631  72.5341034  84.4141388  20.3499699
  71.9718933  85.3629780  19.3133390  75.4025459  24.6161525  77.6757872
  75.5560109  24.0160339  76.9460345  74.4550740  24.7522418  77.6787854
  28.5754681  84.4273567  19.9637997  28.2235503  85.2968597  19.7731626
  27.8938842  84.0018940  20.4840446  75.8178342  19.2747753  88.4694138
  75.5994024  18.7950008  89.2683727  75.3349592  20.0978153  88.5446853
  36.8321705  82.2351742  62.5048590  37.4205875  82.1477795  63.2547665
  37.3860788  82.5805569  61.8047667  57.8967524  71.5139151   7.2070718
  58.8392353  71.5969706   7.3521870  57.5730896  71.0634279   7.9871583
  65.2199697  63.5450888  15.6003535  65.8101606  63.3005285  16.3131642
  64.7338772  62.7436733  15.4062402 109.6210051  37.8321075  32.8117657
 109.2720080  37.3521137  32.0607424 109.8666287  37.1512031  33.4380746
  77.7854873   3.4707164   1.6347666  77.4741317   4.3324661   1.3578486
  78.6834193   3.4236335   1.3065398  71.2149382  88.9240837  22.2989082
  70.6533957  88.6524677  21.5728688  70.7733774  89.6877289  22.6705170
  40.2155209  97.7808571  45.5002642  39.3896604  98.2581806  45.4206228
  40.6656361  97.9409313  44.6708012  55.7178974  75.4456234  13.2171381
  56.1563063  75.4140377  12.3668253  55.9711742  76.2918472  13.5859096
  61.7653799  67.1532965   3.1757510  62.5343990  67.6057768   2.8291926
  62.0748186  66.7367601   3.9800981  25.1112699  31.2060373  89.2788154
  25.3303193  31.8910520  89.9104843  24.4256925  31.5928094  88.7341827
  51.4001560  78.0862331  26.6462374  51.8722057  78.4636927  27.3884797
  50.5594969  77.8109884  27.0119762  47.8552103  90.7082939  16.2273514
  47.9009199  89.9730015  15.6162095  48.5752153  90.5560970  16.8394506
  47.4797058  46.4292336  19.9505615  46.9134903  45.6886101  20.1676035
  48.0652428  46.5117216  20.7032752  54.7886658  90.2019024  18.9002526
  54.9282265  90.7705116  18.1429958  55.5871344  90.2948093  19.4199169
  17.1592378  15.2484100  88.1023565  16.8874358  16.1210411  88.3867222
  18.0838918  15.1949518  88.3439932  97.1089242  24.1650026  87.1911174
  96.6241691  23.5710876  86.6179616  96.7675684  23.9844100  88.0669561
  59.4901705  69.8230314  18.2843161  59.7708941  70.0217819  19.1775823
  60.1981258  69.2889881  17.9240000  86.6796112  79.8968029  15.3556323
  86.2996864  80.7624722  15.5056691  87.3044205  79.7820807  16.0716546
  52.1722174  99.0061855  45.6320715  51.6864252  98.2287025  45.9072971
  52.5669384  99.3396664  46.4378166  33.8198709  76.2209082  14.7376037
  34.1199613  76.7820930  14.0225852  33.6455750  76.8250895  15.4592812
  17.8971004  99.2256451   6.6009492  17.1808887  99.6214771   6.1043704
  18.6826241  99.6730900   6.2863356  67.0650101  68.7910938  33.5593867
  66.7022848  69.6397924  33.8131094  66.6722918  68.6082983  32.7058125
  24.1958833  78.8352680  11.9538701  23.4013057  78.4222078  11.6158473
  24.0334654  79.7745037  11.8661654  70.9481284 103.5777729  74.1463602
  71.3950011 104.4062393  73.9726270  71.4046547 103.2138651  74.9049008
 109.8018885  20.7123756  15.9264433 110.6987859  20.4437351  15.7273531
 109.3703748  20.7574367  15.0732160  47.2416878  93.9053154  33.3520412
  46.9309616  94.0840721  32.4645019  46.8482113  93.0625916  33.5783720
  70.3393173  72.2186899  31.7193675  70.8959198  71.9774532  32.4597955
  69.4879770  72.4110317  32.1123791  12.1835755   7.7738159  66.4930809
  12.6958083   7.2971027  65.8399380  12.4438047   8.6881034  66.3808620
  82.6066494  84.2018700  32.3056221  83.0466080  84.8318863  31.7348742
  83.2771873  83.5476208  32.5020075  28.6504364  62.2295284   8.8876432
  28.5826063  62.5853491   9.7736579  29.5910788  62.1302986   8.7407517
  38.2082081  86.4082909  56.3276005  38.2395959  86.3554668  55.3723764
  38.3894634  85.5160046  56.6229105   4.1347741  20.2846591  89.8763118
   3.5932874  20.7252424  89.2214015   4.2756414  20.9453933  90.5544108
   3.1034564  20.3893630  83.7435592   3.5665750  21.1928098  83.5064197
   2.5157737  20.6518810  84.4520378  31.3178015  77.9314232  13.3123529
  31.0185170  78.0703497  12.4138212  32.0046329  78.5858107  13.4399116
  32.0914388 100.3735447  13.1992340  31.2459803 100.4257298  13.6449981
  32.5216103  99.6128941  13.5898614 104.3265460  98.9815998  25.9443402
 105.1292007  99.2588615  26.3860440 104.6270882  98.5947418  25.1219964
  25.7766676  74.1314983  45.5557537  25.3408432  74.9487162  45.7975006
  25.9311438  73.6868000  46.3891888  32.7400804  75.1790619  20.5926490
  33.2139683  75.2039623  19.7613597  32.9852796  74.3402195  20.9830952
  36.2747192  85.3733826  21.1744285  36.4599681  85.9251308  20.4145026
  35.6959510  85.9049416  21.7209697  27.6927757  83.8560963  12.5832713
  28.4539223  84.3332100  12.9138005  27.0401335  84.5351315  12.4123931
  53.2039738  69.3839312  17.9399562  52.5313663  69.9849033  17.6195443
  53.4165287  69.7071457  18.8155043  27.3730636  73.3119965  14.0171921
  27.5814676  73.2535124  13.0847871  27.0389771  74.2015457  14.1326070
  63.9498186  69.0190554  14.7054541  63.4546137  68.4542036  14.1122043
  64.8026848  68.5921097  14.7865009   0.3866372  87.3276234  54.1134977
  -0.4213080  87.1751022  53.6233997   0.5750117  88.2567883  53.9815712
  82.5827408  98.9022541  38.6035800  81.6316509  98.8774681  38.7087154
  82.7573013  99.7538471  38.2028842  49.4182158  94.1476822  26.6404414
  48.8867283  94.9277782  26.4816880  48.9383364  93.4394646  26.2110448
  42.8915501  83.8223743  25.5824804  42.9667997  83.6430645  26.5197182
  43.7026167  83.4795380  25.2071548  12.6265419  67.6721191   6.7324114
  13.2103002  67.7445221   5.9772855  12.7470851  66.7748260   7.0431674
  53.7781477  82.6141834  35.1795626  54.0769815  82.0704269  35.9084344
  54.3349266  83.3918953  35.2169323  53.7624931  53.8065386  10.1033616
  52.9659700  53.2757187  10.0994480  54.4676781  53.1790972  10.2622855
  44.6057272 103.9197063  27.2167826  44.7287273 104.7079086  26.6877723
  44.8240471 104.1928196  28.1078362  71.5521718  10.7130336   4.0563536
  70.7097746  10.7932472   3.6089587  71.5449310   9.8292732   4.4239712
  38.8973069  75.0271463  44.6084642  38.4596920  74.2106533  44.3674994
  39.3935204  75.2724457  43.8275480  12.4190021  58.6859512  12.2116959
  13.1380665  58.0648088  12.0961142  11.6293454  58.1727552  12.0405149
  51.5908146  63.2472563  15.2660334  51.9351387  62.4027061  14.9755037
  51.7758656  63.2711983  16.2048697  44.0705013  74.3441725  60.0634050
  43.2283354  74.0473413  60.4081964  44.5323753  74.6921349  60.8261824
  27.7170037  13.6251132  86.8496192  27.3458051  13.0133216  86.2138880
  26.9919156  13.8243406  87.4418944  27.5967502  19.5637147  87.0104134
  27.0870923  19.2934101  86.2465954  27.0630359  20.2401655  87.4272979
  32.4301099  18.5213153  73.9175058  32.6781415  17.8503911  73.2814467
  31.6248798  18.8998811  73.5646296  61.7292881 104.0849018  28.6545658
  62.0862198 103.2592869  28.3271718  61.2103462 104.4269085  27.9265857
  77.8929996  80.6045151   8.4589422  77.3112869  80.3284454   7.7506864
  78.0635738  79.8036671   8.9547044  40.1344681  97.1256542   9.5557851
  40.2890348  96.2020969   9.3573344  39.6799731  97.1168137  10.3981566
  34.8598218  82.8233719   5.1861542  35.6654000  82.3924160   5.4717278
  35.0698328  83.1744862   4.3207958  35.1224017  96.5859127  10.1299977
  35.7864356  95.9900284   9.7832882  34.8470068  97.1038532   9.3736088
  92.8953514  46.5338342  84.1305155  93.5232363  45.8120744  84.1629869
  92.2493873  46.2602346  83.4792829  93.8579465   9.2293167  36.3556886
  93.0904771   8.6594772  36.3055611  94.5130206   8.7976169  35.8072853
 103.5371862  59.9294090  21.1221743 103.6573617  60.2320957  22.0222688
 104.4206057  59.7172356  20.8208680  80.6602947  26.6154973  72.6161695
  79.8081664  26.7009370  72.1886075  80.8744965  25.6857126  72.5396669
  20.3420067  81.5232468  23.6764503  19.9826097  81.5353870  22.7893662
  20.2951050  82.4342823  23.9663601  79.4222785   9.4841098  13.3817410
  79.6948720  10.1057624  12.7068543  78.9352465   8.8117217  12.9053760
  31.2714863  85.0521088  40.6571245  31.3257098  84.7549343  39.7488451
  32.0215416  84.6425629  41.0883141  22.1503639  81.9896889  27.1910143
  21.5196395  81.3422203  26.8760538  22.8093314  81.4751339  27.6570892
  39.4989204 101.2140274   1.7161942  38.7000871 101.7405987   1.6875967
  39.2251182 100.3470135   1.4169240  14.0284979  79.8865366  32.4752736
  14.7046638  80.5291271  32.2605419  14.4702208  79.2544556  33.0423594
  42.9588890  99.9972343  39.9613857  43.2666588 100.6028843  39.2870736
  43.5975218 100.0823402  40.6692982  62.5528956  13.6631107  17.6043010
  63.2860328  14.2586326  17.4490845  61.7814089  14.2296695  17.6111162
  99.4116212   4.2444705   1.4878511  98.6122943   4.2830753   2.0130345
  99.1024972   4.2272090   0.5821043  68.3102322  74.3453741  42.9777002
  69.1083574  74.3235350  42.4497271  67.7504492  73.6705685  42.5936317
  87.4795052  89.5138949  78.0953276  87.2681376  90.1882666  78.7409091
  87.5500771  88.7073010  78.6058748  90.9229324  33.7578886  90.6450446
  90.5204771  34.1226499  89.8568765  91.8626914  33.8848989  90.5148435
  14.8809432   5.0759523  79.9162758  14.6188354   5.9785764  79.7351492
  14.0724229   4.6417634  80.1883030  68.1947517  89.0946960  24.9813199
  68.4596252  89.9319935  25.3621125  68.8960505  88.4894371  25.2223063
  81.4695311   1.3510131   0.9652875  82.3945905   1.2655639   0.7346489
  81.2443972   2.2493934   0.7235023  50.1975822  48.9776564  18.2730043
  49.9594498  48.6881113  19.1537356  49.9977589  49.9137449  18.2664156
  45.3405905  85.9892082  32.0747399  45.4352760  86.9191647  32.2807431
  45.9140778  85.5458164  32.6998377  27.8669047  93.8542843   7.7255988
  27.4713874  94.7254276   7.6954335  27.3950028  93.3538055   7.0599681
  18.7359141   5.6656044  88.5952914  17.8024768   5.4823415  88.7017772
  18.8127612   6.6088026  88.7391988  38.9743066  62.1967125  42.9509068
  38.7626410  62.8597593  42.2937965  39.2953944  61.4509964  42.4439096
   0.4558388  66.9080067  14.9077797  -0.0838200  66.1215734  14.8270476
   1.3029650  66.5865374  15.2164304  47.9733801  75.2860975  11.7905688
  47.7843285  75.6987238  12.6333201  47.1438026  75.3228092  11.3144577
  38.5186195  81.6179180  19.2579699  38.6377382  82.5081062  19.5890462
  37.5710249  81.4830875  19.2689610  28.4324502   2.4582212  89.0587437
  28.7375831   2.2848861  89.9492950  28.3655070   1.5925663  88.6557570
  49.8246956  80.7344532  10.5840921  49.1822338  80.6574917   9.8787171
  50.0675297  79.8309660  10.7865143  94.3390084  19.6123695   9.1149604
  93.5049916  19.9958133   9.3862706  94.1587973  19.2302226   8.2560569
  43.4438992  68.0899048  50.3779268  43.5866022  68.8751268  50.9064054
  43.0148745  68.4099865  49.5843792  38.8028121  63.7237740  33.3235669
  38.5698295  64.3214226  34.0340328  38.4138012  64.1171169  32.5424242
  18.1039905  45.1740568  65.1115907  17.3420047  44.6527402  65.3642595
  18.7498378  45.0019090  65.7967747   3.3147810  99.7014111  89.1069925
   2.7913235  99.1212862  89.6598760   2.7102564 100.3979462  88.8508362
  19.0868568  25.5548589  82.8831369  19.2166948  25.5741374  83.8312942
  18.3780908  24.9252002  82.7512002   0.7611798  30.2277009  86.5061385
   1.2098502  30.5765550  85.7359273   1.4127731  30.2767770  87.2056020
  22.3111320  73.0316591  36.7609787  22.8814006  72.4214554  36.2933540
  22.1240258  73.7209082  36.1236715  94.2445955  11.3034933  84.2359543
  94.8712776  10.6690805  83.8880688  93.9935968  10.9491556  85.0889933
 104.9085281  24.9983900  85.3438580 104.4040105  24.8592489  86.1453158
 105.7271574  25.3948848  85.6419653   4.7606229  34.2355363  90.5434445
   5.4749345  34.5012681  91.1225655   4.0948581  34.9137418  90.6575577
  28.7518978  42.3103762  50.0975227  28.4544206  43.2010937  49.9121475
  29.6577477  42.2912693  49.7888136  52.3286103  28.1435983  90.8040190
  52.1483277  28.0158250  89.8726729  51.9327401  27.3838727  91.2310326
  79.3818283  95.7156754  32.8149414  79.8809290  96.3893318  32.3530746
  79.8953819  94.9161148  32.7000785  24.2170334  47.1295071  10.2914238
  24.2968416  48.0619669  10.4923797  24.9956584  46.9289303   9.7720546
  67.2288561  94.9888229  29.2498469  66.5107393  95.2933884  28.6950684
  67.6886368  94.3430233  28.7134051  79.2436218  36.9632339   0.8653694
  80.1189613  36.6659331   1.1136191  78.8175631  37.1737504   1.6962665
  15.7274747  77.0001316  56.8131828  15.1471162  76.5735483  56.1827517
  15.9602094  76.3073635  57.4313545  83.2739688  16.7435073   6.4472270
  82.4608565  16.8739604   5.9593111  83.1413031  17.2213363   7.2659510
  45.4512215  38.8709760  15.8606684  44.8806381  38.1156707  15.7186162
  45.9199667  38.9761162  15.0327444   4.7252702  56.6579359  79.5949006
   5.4531955  56.1306207  79.9239886   4.8559808  56.6815488  78.6469615
 100.1456830 102.8297728  89.6655691 100.9012982 103.2373303  89.2422772
  99.4105622 103.0274599  89.0852672  74.1760635 101.5471363  20.5172420
  73.7648582 101.4033699  19.6649110  75.0881004 101.7523861  20.3115892
  62.1941662  71.7761898   3.9667210  62.6119757  71.2873983   3.2576707
  62.0501137  72.6497793   3.6029574  60.7635307  78.1999636  35.5461431
  60.8491850  78.0311871  36.4844441  60.0822067  77.5939369  35.2549982
  97.9592464  55.5299776  74.7293997  97.7017996  56.2626665  75.2889693
  98.9150379  55.5149477  74.7791124  87.9172898   5.9857559  21.8246675
  87.9249860   6.9074439  22.0828462  87.1803809   5.6085586  22.3052144
  37.5815201  60.5449963  17.3058188  38.2146287  61.1516285  17.6897442
  37.2821259  60.9835577  16.5094161  51.4387894  77.0563507   6.4822572
  51.5040779  77.8695822   5.9816295  52.0114470  77.1930742   7.2369772
  50.8502960  67.5354481  26.7498207  51.7686605  67.2810364  26.6597676
  50.5646849  67.7221584  25.8555055  25.3117084  42.1661489  82.3372579
  25.5683993  41.4505784  81.7556238  26.0600900  42.2785966  82.9233569
  45.3889894  90.6245804  17.5062692  45.5717421  91.4908695  17.8701103
  46.1563540  90.4229450  16.9708061 104.0918156 104.9670523  84.6539051
 103.8812110 105.6870907  84.0594131 104.9033782 105.2395456  85.0820881
  67.3345924  11.0338210  35.2881885  66.4581991  10.8833503  34.9338889
  67.8513623  11.3205432  34.5352173  40.9369898  81.2931633  17.4276376
  40.3000402  81.1213875  16.7340803  40.4639196  81.8361950  18.0581594
  10.1979613  84.7525787   6.6104817  10.5308843  85.6384277   6.7542034
   9.3413138  84.7464371   7.0375049 100.7588910  82.9082584  10.6274915
 100.0234924  83.0142117  10.0240064 101.0965250  83.7952805  10.7516825
  28.1218362  67.7823925  26.4277768  27.5620103  67.1103907  26.8166757
  27.5196385  68.3404350  25.9356570  65.8962679  67.5423956   9.5409179
  65.1475859  67.0156288   9.2612332  65.9454298  67.4054289  10.4869914
  56.3387012 101.6649342  19.4236267  57.2329473 101.9554901  19.2443812
  56.3373137 100.7364941  19.1907454  93.4265647  45.1417940  91.3955745
  94.3419824  45.4111593  91.3201547  93.1699643  44.9126165  90.5023423
  19.1569137  18.9904373  91.4437093  19.9576091  18.5885541  91.7807731
  19.4098329  19.3525903  90.5945272  70.6856180   3.1263637  32.3550177
  70.0574828   2.6471710  32.8954363  70.9451056   3.8731861  32.8946066
  35.7432032  72.5550175  19.7111094  35.3670001  72.6276302  18.8339388
  36.6506553  72.8412390  19.6069753  38.7873030  97.3160744  18.7439990
  39.0743899  96.6255093  18.1465578  39.0458822  98.1298351  18.3113849
  31.6433167  66.1444426  53.6810064  31.9592023  66.4608383  52.8346395
  31.2650704  65.2861738  53.4898663  25.7961892  29.5591371  81.4533007
  25.2152394  29.7851102  80.7268966  26.6676854  29.8155801  81.1516989
  34.2822099  67.5675774  60.7621336  34.3515825  66.8680859  60.1124191
  35.1716447  67.9131031  60.8379650  48.9698696  94.9854565  23.4869671
  48.6289406  95.2823830  22.6432610  48.3667135  94.2937660  23.7589931
 100.6017015  63.2736223  83.4722889 100.6456969  64.1382711  83.8805574
 100.2926514  62.6950376  84.1693974 108.0907247  57.2037618  83.6356294
 107.1561430  57.4039762  83.6876238 108.5002801  58.0338018  83.3916432
  44.2245639   7.4768543  14.0251911  44.2560078   6.6911888  14.5710516
  44.0584899   7.1481704  13.1416678  17.3259877  49.3989961  92.2227123
  16.6197585  49.6914213  91.6465571  17.9251718  50.1442926  92.2644484
 101.6418552  64.3860483  13.8810170 102.3374176  63.8335466  13.5244024
 100.9970570  64.4443083  13.1759870  93.1183815  77.2281075  54.9125481
  93.8994122  77.5902414  55.3309822  93.2349777  76.2796497  54.9678564
  40.5985785  75.9089422  21.7285895  40.6712723  75.9056950  22.6830196
  39.8505735  76.4780188  21.5472865  44.2924213  68.9626789  44.0817213
  44.9572372  69.2622280  44.7018194  44.1083145  69.7293711  43.5390234
  30.2378464  74.0508461   7.6304895  30.3086925  74.0721655   6.6761535
  29.5322752  74.6654749   7.8320706  35.9564805  32.3871875   4.4194543
  35.9158897  33.0294609   3.7108859  36.2450933  31.5795541   3.9944071
 111.7839086  54.0151310   5.7785887 112.3886031  54.6377850   6.1821705
 112.3459046  53.4314919   5.2689242 104.9122713  45.8785932  76.9084251
 105.4504821  45.4743593  76.2278641 104.2433426  45.2229612  77.1057022
  55.5361843  85.0441742  26.7844081  56.1147928  84.2963123  26.9332027
  54.6593094  84.7098064  26.9728565  37.5774884  68.3337736  19.7027183
  37.7927685  68.6181927  18.8144648  36.6248012  68.2409811  19.7002137
 106.7102723  98.4171391  34.6669626 106.8670629  99.1672516  35.2405310
 107.0207493  98.7034321  33.8079667  63.4238815  28.7846351  14.0322340
  63.1839943  29.2349434  14.8421144  63.1140184  29.3633485  13.3355951
  45.4815578  92.2121906  26.5051317  46.1032486  91.5063000  26.6825032
  44.8373079  92.1466923  27.2100306  96.9648314  15.4064464  31.3340545
  96.1970330  14.9160861  31.6277623  97.6207019  15.2545928  32.0144987
  80.2403069   1.0833740   7.9301846  80.5720950   0.2031421   7.7531803
  81.0107900   1.6475105   7.8642732  33.0145644  35.5761735  73.5268510
  32.6592015  36.1817758  72.8763151  33.3385228  34.8361509  73.0133915
 100.1273585   3.3632087  26.6342926  99.9628306   2.4242973  26.7215109
  99.6117116   3.6269569  25.8722067  66.8871117 100.2666283  36.3329053
  67.1365643  99.7950935  37.1276784  67.7166843 100.4451656  35.8899999
  67.8977346  79.9059582   0.0806098  68.2430696  80.6371021  -0.4316436
  67.3372412  80.3178406   0.7382006  45.1266146  80.6482315  36.8257618
  45.4015779  81.5587711  36.9332576  44.5370340  80.4875088  37.5625086
  29.2304087  89.1734695  40.6866789  29.3081188  89.2723370  39.7377729
  28.9745212  88.2596779  40.8121252  35.9786081  19.9704330  88.3873791
  35.4221582  20.5473344  87.8641373  35.6468867  19.0906017  88.2082483
  62.1070242  90.5585861  22.5079179  61.7995548  90.4965210  21.6035724
  61.3615799  90.2703190  23.0346537  99.7207404  17.0552825  12.2192168
  99.1909505  16.3629627  11.8239403  99.8257304  17.7036380  11.5229118
  38.0198646  99.9847412  24.3171287  37.8703213  99.4184875  25.0742459
  37.9350615  99.4025135  23.5621166  33.7289857  51.0997789  71.2435234
  33.7943792  50.4497354  70.5439532  34.5434617  51.0032957  71.7370308
  51.1444950 103.8386726  25.5349994  51.9508982 103.4082699  25.8190632
  50.6865931 103.1739044  25.0205731  41.9659233  85.4168701   8.3136266
  41.5001345  84.6330070   8.0223614  42.2809410  85.1964283   9.1902131
  10.2836703  19.8587148  83.8146377  10.2983808  19.8814981  82.8578222
  10.9160375  20.5265491  84.0798682  56.5033293  90.6076050  30.6598020
  55.5476618  90.6002140  30.6062031  56.7133474  91.4429474  31.0773373
  68.7846947  93.5470104  35.6973648  68.4708452  94.4467545  35.6068516
  68.0835342  93.0948257  36.1665535  53.5622597  92.2673798   1.6913721
  54.2800856  92.7639294   2.0843121  52.8994179  92.9266167   1.4857455
  32.6097869  45.0057714  84.7231573  32.0645522  45.5838983  85.2567423
  33.0271196  44.4199197  85.3547001  28.1076001  54.9493711  91.5460983
  27.5720739  54.3587034  92.0757693  27.6529359  55.7904737  91.5915475
  68.0342246  30.5357074  41.9096851  68.0313874  29.6320056  41.5941715
  68.9109445  30.6596946  42.2733116  17.5708201  22.5087833  39.2001486
  16.6742041  22.8332328  39.2840648  17.5101473  21.8001842  38.5595012
  50.2791691  46.6024637  25.1542234  50.9724331  46.0776663  25.5544901
  50.7390499  47.1880102  24.5526600  70.6425858  96.1775780  16.2648642
  70.3402376  96.8789673  15.6879234  71.0520601  95.5432415  15.6764865
   6.5722277   5.0143241  21.4324856   7.0631316   4.3203449  20.9924364
   5.7457545   4.6013545  21.6827631  38.4320879  75.4090166  11.7040467
  38.5660243  76.3182020  11.4363372  39.1952062  74.9436045  11.3615906
  74.4198513  73.3145618  38.6363101  74.7029257  74.0907431  39.1196799
  74.0227842  73.6615086  37.8374362  57.9154253  62.1118402  23.0467582
  57.8696918  62.3947763  22.1334743  57.1613312  61.5325069  23.1560707
  55.9865522 101.8010521  38.5801768  55.8865261 101.3756180  39.4317794
  56.8624973 102.1861172  38.6062169  44.8579025  91.2608719   9.6177483
  45.4006147  91.9790459   9.9432158  43.9589119  91.5684128   9.7338063
  71.2206601  14.7829788  89.4502169  71.4023828  14.6795289  90.3842987
  70.4795407  14.2003267  89.2844248  97.7331973   4.4711875  25.3508162
  97.7808667   4.9593067  24.5288062  96.9527198   3.9245510  25.2598596
  25.2341556  63.0194585  87.6111454  24.9925136  62.1131151  87.8019023
  24.6499204  63.2781713  86.8984306  49.9211216  98.8130760   5.6848049
  49.1158390  99.3066311   5.5293924  49.7768164  97.9748631   5.2457130
  52.5886631  70.2059984  24.6539664  51.8945503  69.6601677  25.0234389
  52.2606945  70.4589510  23.7910151  53.7964058 100.3360462  25.6270647
  52.8560257 100.3565216  25.8045483  54.2025995 100.5764961  26.4597869
  66.4468145  70.1583767  16.4565122  66.5125656  70.8648729  17.0989847
  66.1279011  70.5861998  15.6618488  89.5191146   1.7931079  30.2714062
  89.1879559   2.2053241  31.0693049  88.8030625   1.8797588  29.6421218
  64.7773097  52.5531213  89.9644351  64.3207059  51.9704645  89.3575907
  65.2326319  51.9636362  90.5656177  91.2441730  87.0698071   6.2878722
  91.2521839  87.5404644   5.4544139  91.6055775  86.2082100   6.0798723
  50.8612394  75.0808287  34.9980807  51.7063618  74.6716404  34.8121619
  50.3579712  74.9680519  34.1917109  69.3255329  93.0768585  13.4547937
  68.6322069  92.6014137  12.9970944  68.8669825  93.5798550  14.1278136
  86.3489343   4.1517162   6.8620676  86.8511153   4.9663543   6.8822765
  85.6051970   4.3429374   6.2906480  73.5646534  66.7457438  31.0778904
  74.3448067  66.6124582  31.6162443  73.5157776  67.6941013  30.9576488
  26.4284610  19.7625511  81.8146777  26.8302106  19.0537422  81.3122714
  25.7913446  20.1501911  81.2146354  -0.0161672  72.5319116  66.2313807
  -0.3305245  73.3985155  66.4890993   0.3646278  72.1678274  67.0305479
  83.6398269   6.1464118  48.0793190  82.8742219   6.0611343  47.5111580
  83.2969809   6.5277004  48.8875914  19.5278024  46.0612409  69.0905989
  18.9734172  45.3233736  68.8367260  18.9783286  46.8326013  68.9516437
  41.9564581  85.2288723  54.6555281  42.1130037  85.9941292  55.2088022
  41.2968540  84.7219181  55.1289749  98.4561587  12.1945381  56.4859056
  98.0082179  11.9689273  57.3011875  98.2986737  11.4456462  55.9109354
  23.9309549  92.9639721   8.3989584  24.2178440  93.4337997   9.1820186
  23.0978847  92.5653267   8.6505771  60.7798052  90.2888012  29.2093277
  60.6381941  91.2120056  28.9998960  60.0255156  90.0466442  29.7465777
  71.4496851  64.8668528  16.3288438  71.5310001  65.7830238  16.0637951
  70.7592154  64.5152998  15.7668030   0.1502966  43.0637853  69.9095667
   0.2841305  42.1421926  70.1309193   0.6119107  43.1801336  69.0791405
  50.9467793  86.3478565  39.3796134  51.8739128  86.5336323  39.5283961
  50.8033657  86.5668583  38.4589052  56.0172510  98.5654545   4.1269943
  55.5332518  97.8750420   4.5801097  55.9021139  99.3397522   4.6778429
  92.7118492  77.1984339   2.1031283  91.8775558  77.4698496   1.7203641
  92.6674080  77.4977875   3.0112278  60.8427334  96.2220097  45.0207567
  61.5350342  96.6639328  44.5291710  61.3068914  95.6029415  45.5842686
  10.5615806  37.4133890  91.8781214  10.2532148  36.7586725  92.5046074
  10.3374004  38.2530420  92.2793213  42.8861188  42.2684400  32.7655399
  43.3797216  42.9694288  32.3398626  43.4033250  41.4793031  32.6043403
   5.0705054  10.6538581  13.2134116   4.3198111  10.7830142  12.6337433
   4.9575617   9.7679233  13.5577893  18.3775090  20.5963867  81.8702758
  18.7671661  20.5788295  80.9961522  18.8060950  19.8796003  82.3379970
 104.3275452   5.3769779  36.1082506 104.1967393   5.0203227  35.2296615
 103.6912680   6.0889816  36.1748934  42.7324034   4.9343585  15.1881158
  42.3980547   5.6337642  15.7496107  42.0026393   4.3197917  15.1107776
  41.2726021  84.8216724  18.0762863  40.5206966  85.4037666  17.9665756
  41.4740515  84.5210171  17.1901393  28.7592340  93.5773468  13.0666840
  29.5559096  94.0940857  13.1871724  29.0729833  92.7082062  12.8169239
  87.3224258  66.9446659  33.1523514  86.8344688  66.4391661  33.8024306
  87.4488926  66.3379812  32.4228525  36.3963889  25.5567138  75.8703006
  36.6169356  26.2133663  75.2096963  35.7066821  25.9653776  76.3933027
 109.5622728  31.6040533  85.8201123 109.9731562  31.4928739  86.6774607
 110.2920172  31.7776124  85.2254832  92.6517963  90.5591297  47.6140547
  92.5904369  89.6900940  48.0105925  93.5449028  90.6040955  47.2726297
  28.0841064  87.9720020  52.4374199  28.0279088  87.1414280  51.9649601
  27.2955108  87.9930019  52.9795551   4.0073063   8.5118579  24.6842313
   4.8753550   8.8683223  24.8730659   3.7417796   8.9450454  23.8730121
  71.8991375  84.5565796  38.4302092  72.2604084  84.4489193  37.5503659
  71.0099840  84.2075443  38.3683896  84.8251036  38.6673658  85.1631624
  85.3393433  37.8711145  85.2964723  85.3380123  39.3570726  85.5844277
  24.4172668  87.9767227  23.9553165  24.2258286  87.6950359  24.8498750
  23.9227080  88.7893486  23.8490868 104.1911841   5.8816432  22.6872444
 103.6006308   5.1318454  22.6146007 104.9283696   5.6619834  22.1175599
  69.6233368  89.8639584  41.7883730  68.9553928  90.5427074  41.6914988
  70.1971865  89.9828911  41.0315514 104.7698499   4.0584754  27.1677828
 103.9675237   3.5447311  27.0751929 105.2041293   3.9795875  26.3184261
  93.8476086   5.9087562  42.3122835  94.3349887   5.0916957  42.2069740
  94.4666148   6.5041160  42.7349138  61.2698603  82.9836559  18.5424340
  61.1889362  83.9193726  18.3577347  61.3668966  82.9347515  19.4934464
  95.1615764   2.5548553  25.6333137  94.5329667   1.8812274  25.8927441
  94.9713946   3.2947730  26.2100196 111.6793153  44.1778772  88.8331557
 111.4054654  45.0361173  89.1566843 111.4409683  44.1841619  87.9061261
  44.7796010  74.3380468  87.3044670  44.2283296  74.9755590  86.8506939
  44.4528817  74.3363016  88.2041782  48.8998318  74.9824667  45.0127268
  48.9490795  75.5579805  44.2494535  49.2185640  74.1371775  44.6963072
  55.1321173  68.4943914   9.0236795  55.5134487  69.2974710   9.3784821
  55.6485701  68.3103275   8.2390618  52.6023149  82.8726673   4.0140057
  52.3211098  83.1059551   3.1292853  52.5825977  81.9157600   4.0270823
  43.1371307  98.5934067  57.8102160  43.8640738  98.3397293  57.2415018
  42.7463293  99.3514729  57.3756695  63.5060263  84.2883205  23.7810540
  64.1269779  84.8427200  24.2535949  63.5258532  84.6182537  22.8827357
  32.4422263  31.5369813  88.4661767  33.3384799  31.7405622  88.7335900
  32.4769830  31.5139596  87.5098852  57.1134806  87.8891468  22.3619127
  56.9420528  87.5389576  23.2361054  57.1266556  88.8386154  22.4825835
  14.3799924  79.8770158  79.6122432  14.8488187  79.6250360  80.4078162
  14.2619895  79.0564649  79.1337121  87.1584559  10.7582187  21.8273091
  86.5499354  11.2794017  22.3510408  86.6305209  10.0292301  21.5016031
  89.9689839  40.2579229  77.5925720  89.1030202  39.9066274  77.7997673
  90.4023347  39.5559614  77.1070910   7.3408415   4.2391204  31.4302778
   6.9217589   3.5870551  30.8686614   6.6614058   4.4875049  32.0570993
  65.1202297  92.7450562  27.1016884  65.5531979  93.5479164  26.8115497
  64.2295313  93.0189133  27.3205090  36.2252810  20.6461715  44.4659948
  35.9861758  19.8102092  44.0657187  35.8552268  20.6040573  45.3477669
   6.5851831  21.7381971  82.0222903   7.1123838  22.5333374  82.1000195
   5.6872462  22.0298021  82.1801102  51.3489914  71.7651176  17.1669352
  51.2164736  72.7098799  17.2450125  50.4918194  71.3861370  17.3615146
  79.8148537  26.8586254  11.8106413  80.2893115  27.6570320  11.5789473
  79.6240998  26.4410877  10.9706974  69.0977335  99.4923782  20.2818060
  68.5363150  98.9232063  20.8081913  69.6048450  99.9889469  20.9240580
  45.6502104  88.7986946  32.6473904  45.8082390  89.1903496  33.5063815
  45.5290031  89.5462322  32.0619559  27.6164722  30.1114671  89.0039623
  26.7264651  30.4554098  89.0802345  28.1526612  30.8776586  88.7997693
  59.8722458  93.4558487  10.8242512  59.5897388  92.6421928  11.2418306
  60.0758696  93.2045650   9.9233484  61.0104036  99.3601322  12.5285554
  60.9166050  98.4140396  12.4175072  61.9347763  99.4856358  12.7430737
  33.9762425  80.3592396  37.9540896  34.9117398  80.1565933  37.9577637
  33.9060783  81.1571503  37.4300218  38.0688119  72.5867701   3.0142158
  37.7046895  72.8545332   2.1704456  38.9434361  72.2592068   2.8045377
  72.5562763  60.8569574   8.1737971  72.2373295  60.6479406   7.2958350
  71.9145679  60.4597759   8.7626016  81.7678547 106.1810493   8.3972436
  81.4217567 105.3152943   8.1806147  81.9880581 106.5696621   7.5506520
  10.1132583  64.0686338  85.3934580   9.5209026  64.6877305  84.9667740
  10.3726958  64.5055978  86.2046194  87.3400590  79.4345777  91.2232465
  87.1957729  79.8874013  90.3923634  88.0986140  79.8744123  91.6071450
  61.0874510  77.4049902  38.2890081  61.3234425  78.1714296  38.8116074
  61.8858433  76.8776035  38.2632446  88.6092854   2.6732444   7.6806337
  87.6669932   2.6546478   7.8478855  88.9158679   3.4636402   8.1250662
  83.5297442  29.8523425  55.5034876  84.3646670  29.4084930  55.3547144
  83.7232972  30.5085849  56.1729050  55.3069830  92.0314312  16.0924816
  54.5420027  91.7019939  15.6207740  55.1486969  92.9715061  16.1786628
  26.3487005  98.6355877  24.1820145  26.2087655  98.0722618  23.4208894
  27.0863461  99.1932774  23.9348483  35.4094296  16.5299701  55.8971119
  34.7502513  17.1793556  56.1420918  36.0468315  16.5547084  56.6107941
  57.6322187   8.6588191  42.8397322  56.9228257   9.1305160  43.2761955
  58.2024837   9.3471813  42.4974060  14.0638316  79.3229485  36.0250497
  13.1827235  79.3880892  36.3933396  14.6094847  79.0385866  36.7582846
  91.6197635  45.3545093  20.9041476  91.6234113  46.1888885  21.3732195
  92.1604396  44.7753906  21.4412975   2.5049927  -0.0039673  36.6927671
   2.7605250   0.8759498  36.9697070   3.1812909  -0.2640534  36.0672998
  38.0258441  83.1942177  21.7701888  37.5815392  83.9989185  21.5031910
  37.3197365  82.5591278  21.8897700  22.6886058  63.6926889   0.2229735
  23.1386590  64.0586185   0.9844074  22.4260497  62.8145838   0.4990672
  77.1660519   1.2888812  15.7745874  77.5066663   0.8637142  16.5616345
  76.6897894   2.0520496  16.1016786  67.0106506 105.3978443  25.0500202
  67.0426273 105.7595539  25.9356689  67.9182053 105.1658630  24.8531365
  44.5696449  87.2473049   2.9264081  44.5546722  86.4539814   3.4618080
  44.6372271  87.9621792   3.5593492  93.9307425  44.0688055  86.0491163
  94.3604252  44.8774641  86.3278342  94.0459178  43.4698408  86.7868167
  16.4295149  90.7487965  27.6229405  17.2633374  90.5513191  28.0495214
  16.2069368  91.6284370  27.9277873  24.9836326  94.1286469  16.3539052
  25.8830357  94.4175911  16.1995792  25.0126052  93.1797314  16.2316716
  56.0264111  75.5450583  10.4589415  55.7855368  75.0634098   9.6675986
  55.9560108  76.4664459  10.2092862  30.0383019  97.7831936  17.3046899
  29.8626590  98.2173824  18.1394708  30.2429986  98.4976864  16.7014992
 104.8033143  10.5976104  27.1565199 103.8723756  10.8132266  27.2122145
 105.2389193  11.4430522  27.0482874  59.6854353  78.5409689  17.3693311
  59.2173719  77.7096844  17.2911644  60.0400114  78.6993790  16.4944518
  76.2238118 103.8245504  90.4647003  75.3747746 103.4041327  90.6011570
  76.6876551 103.7019747  91.2929860  49.7135067  60.3652096   6.7744273
  49.3267775  60.1492548   7.6229763  49.9872875  59.5216370   6.4143372
  58.1904840 105.5799389  17.7681494  57.4809122 105.1175022  17.3221731
  58.0243969 106.5050888  17.5871754  89.2922116  14.9778652  27.0329261
  89.6320964  14.7245502  26.1747050  88.9965106  15.8807659  26.9164538
  71.9336462  97.5114441  38.9416409  72.5079441  97.0741844  38.3129787
  71.0587978  97.4339390  38.5610294 109.2634917   4.8508071  26.2619710
 109.5539332   3.9870262  25.9691072 108.5473348   5.0766658  25.6683922
  31.7105579  38.7564390  84.0796477  32.1182346  39.6224325  84.0892697
  32.0943498  38.3194749  83.3193851  99.8214626  88.6332703  12.2389340
  99.4102669  88.6586380  11.3749278  99.3486977  87.9465008  12.7091181
  15.0982106  65.4004955  27.4721026  14.8760021  65.8106470  26.6362619
  15.3789103  66.1271572  28.0283427  26.7779588  45.9843557  90.2883040
  27.1809529  45.2422349  90.7389419  27.4910211  46.3726728  89.7813645
  52.6360735 102.0032089  85.0892717  51.7866584 102.1665590  84.6793431
  53.0470905 101.3413828  84.5331401   4.7034027  91.3878918  31.7001081
   4.2032863  90.5743885  31.6343927   4.3992378  91.7910099  32.5132585
  90.8276130   9.9151039   8.6805886  90.1444627  10.5555057   8.4820533
  91.5786315  10.1962184   8.1579310  45.4331255  64.1538143  52.7706766
  44.8809624  63.8164139  52.0653343  46.2299728  63.6254692  52.7246571
  99.1302777  27.3442554  30.3264475  99.7080756  26.7413520  29.8585892
  99.0478469  28.0984401  29.7428012  78.5624123   9.4711685  21.8366337
  78.9969350   8.6199188  21.7837906  79.2556811  10.1056575  21.6548729
 103.1655217   4.7950076   6.6121823 103.9249659   4.5729255   6.0735250
 102.6204205   4.0083980   6.5935856  78.7789298  14.4578742  37.4324012
  78.9544917  13.9038085  38.1929421  79.4432450  14.2031764  36.7920542
  94.7326756  77.8876925  43.6783838  93.9144993  77.9412317  43.1844759
  94.4643688  77.9572725  44.5945692  56.3903522 101.6360474  14.7161269
  56.3142681 102.5740242  14.8912120  57.1762371 101.5562820  14.1755247
  91.4983082  98.2626820  21.7147303  91.1522198  97.6615143  22.3743057
  90.7316589  98.5280800  21.2067604  78.3706809   9.6128940  28.8261294
  77.8443385  10.2030563  29.3654943  78.2542945   8.7524318  29.2289925
  78.3336115  79.5123959  13.0264163  78.5025454  80.4545021  13.0153310
  78.3206940  79.2822933  13.9554572  56.0393381  77.6179743  21.7682695
  56.5279913  76.8565369  22.0807838  56.4058495  78.3548737  22.2570276
  17.5806429   2.7859210   7.2367549  16.7134001   2.3882293   7.3139781
  17.5454237   3.2801723   6.4177859  97.2337339  58.2528989  78.9648474
  96.4545724  58.4997194  79.4630635  97.5889347  59.0836160  78.6486447
  56.1307716  92.6712418  36.3322544  55.2574778  93.0400944  36.1998606
  56.1175442  92.3407936  37.2305107 109.9345324  41.8555562  86.5663404
 109.7652648  42.7847497  86.4108450 109.4636128  41.4056509  85.8648748
  91.9665623 100.8374786  25.4629564  91.2647915 101.4543152  25.6709313
  91.5151882 100.0728512  25.1053882  51.9360828  96.4904022  61.7137909
  52.8911543  96.4279938  61.7004299  51.6381311  95.5851078  61.8027163
  49.0679741  79.3455982  32.6710629  48.1758213  79.5923281  32.4273014
  49.4267845  78.9360476  31.8838167  80.8211994  66.7864847   9.7791624
  80.3019238  66.7207956  10.5805802  80.7654667  65.9157181   9.3856013
  33.2593799  55.5469418   4.3036774  34.0901613  56.0095930   4.4131804
  33.5003018  54.7154522   3.8952455  19.9371626   7.3160457   1.8991001
  19.1297057   6.8799209   1.6270286  19.6878149   8.2333564   2.0113257
  68.8683939  83.4185314  20.7325268  68.6169147  82.9418278  21.5235662
  69.6820736  83.8634968  20.9695292  60.0343180  80.8350086  22.9436779
  59.3500233  80.2589512  22.6028967  59.6301699  81.2683678  23.6954141
  28.7853812  40.3946989  89.5752347  29.1342830  39.5035951  89.5960260
  28.5903167  40.5540578  88.6517695  59.3964005 101.9988251  60.6739330
  59.9528217 101.2445736  60.4796934  59.7945642 102.7214813  60.1886892
  80.2196026  78.7351465  11.1381686  79.6769905  78.0954075  10.6771481
  79.7026348  78.9785957  11.9060934   6.4466046  32.3157232  84.0592367
   6.1031770  32.3436563  84.9522698   7.2153711  31.7482488  84.1159064
  51.4152861  92.0536709  28.2631660  51.4221478  91.7302227  27.3622966
  50.4897547  92.2014332  28.4575510  85.7478509  52.1182268  79.9701405
  86.3083861  52.4521177  79.2697454  85.0939343  51.5839307  79.5194257
  39.8014878  35.9022062  89.5154298  39.7638988  36.6468446  90.1157049
  40.6943702  35.5686109  89.6032363  28.5249114  90.7366276  30.3747630
  29.3950939  91.0382462  30.1139092  28.0359244  90.6774616  29.5540190
  42.8863859  65.4701328   7.5194705  42.9168081  66.2640333   8.0533534
  43.8021803  65.2063847   7.4300742  60.9093905   1.9616222   9.3071616
  60.6394220   2.5698566   8.6191261  60.1762224   1.9553565   9.9225134
  49.3684483 103.2326984  16.7625666  49.3001938 102.2854900  16.8824685
  48.4613323 103.5376453  16.7431653  92.4775029   5.9106349  25.0325179
  92.7136470   5.3416442  24.2999077  92.8860713   5.5011653  25.7951689
  71.1846018  64.5760155  41.8214560  70.8870316  65.2245045  42.4595308
  71.9626141  64.9688625  41.4257288 108.6870814   1.8262767  42.9509783
 109.0156747   2.7067851  43.1325483 108.2086564   1.5811347  43.7429667
  94.2182494  35.0780486  37.5857353  94.1236211  35.6085109  38.3768654
  93.5360671  34.4108962  37.6616836  41.9915342  80.8407879  42.2992039
  42.1155500  80.1197147  41.6820240  41.0452747  80.9844589  42.3126793
  61.4099121  96.3394833   3.2798979  61.0893154  96.3625813   2.3782796
  61.9783878  95.5700588   3.3123252  80.9381771  64.6546316  31.7397785
  80.4186821  65.2413082  32.2894716  81.6953373  64.4282722  32.2798705
 105.3259803  11.7108535  10.3992784 105.9748317  11.3991355  11.0301995
 105.5382729  11.2478732   9.5888394  70.5310822  23.9289855  46.3539886
  69.8312236  23.3269309  46.1010838  70.0739599  24.7052287  46.6775894
 105.4220173  33.1909101  92.5135465 105.9328983  33.9608304  92.2636407
 105.8952949  32.4538248  92.1276054  58.5914516  38.1281829  19.9268878
  58.9960051  38.8239479  19.4087398  59.2383862  37.4226999  19.9271405
  64.1580915  95.7859039  32.4940252  63.2309198  95.9927464  32.6114917
  64.6091223  96.6179562  32.6371837  91.1347962   3.9097213   1.4684618
  91.9914294   3.5122394   1.6247460  90.5158187   3.1839847   1.5485467
  66.6414881  87.8778076  39.9343181  66.4605522  87.7954865  40.8706522
  66.1787081  87.1410465  39.5352650  32.4570775 106.0154724   6.7606139
  32.1362066 105.5906200   7.5560844  32.4447894 106.9501591   6.9666529
  55.1348877  76.9016123  35.0814247  54.1939116  77.0153236  35.2150798
  55.3049135  75.9943962  35.3349662  55.6739044  84.5113754  30.5748844
  56.4327335  84.3794632  30.0065446  56.0257530  84.4478035  31.4628005
  34.0813684  85.3944969  14.2813373  33.5192657  85.7687092  13.6029327
  34.1346359  84.4642830  14.0620244  91.6761304  27.5150585  31.3042188
  92.1058513  27.2036456  30.5076051  91.6021920  26.7366886  31.8564057
 101.3436508  69.7182846  26.6001558 102.2148705  70.1090908  26.6670966
 100.8668137  70.2966118  26.0048413  67.1465302  98.8873768  26.5885687
  67.4943256  98.2927132  27.2531366  67.5001192  99.7446918  26.8256760
 111.0533906  37.6843643  54.4646883 110.7457448  38.4498882  53.9793444
 111.3809300  38.0402088  55.2907133  45.2348948  90.2653503  39.1356921
  44.6724081  91.0199833  38.9613914  44.6412039  89.5147419  39.1171503
  90.3890897   5.5154991  19.2462587  89.7913361   4.8226547  19.5271254
  90.3097773   6.1887645  19.9220228 104.9579620  95.7494354  18.3512998
 105.4396152  94.9851418  18.6676741 105.5995655  96.4596367  18.3655679
  31.8246268  29.5942705  60.9778774  31.4515638  28.8056581  60.5839932
  32.7580547  29.5465963  60.7712972  61.0473299  57.6484680   6.2932968
  61.4399624  56.9263792   6.7838609  60.1810265  57.3260355   6.0447156
   6.4394381  24.4327831  31.3152885   5.9555628  23.6564159  31.0335875
   7.2564223  24.3994522  30.8176422  12.4848654  29.9013709  45.6823063
  12.0565131  30.6578922  45.2817726  12.8764059  29.4305133  44.9466276
  31.2956332  47.0625608  90.2598699  30.8645963  47.4219816  91.0352762
  30.6772803  46.4155595  89.9203694  24.5500516  40.2498357  75.8871699
  23.8727664  39.5958917  75.7143212  25.1106309  39.8448961  76.5489924
  73.3207178  86.3794708  26.3627601  73.3825731  86.3240719  27.3163509
  74.0118217  86.9929028  26.1131525  78.7320185  83.8609409  53.7813044
  77.9715729  84.4257736  53.6437941  78.7996531  83.3497715  52.9748487
  84.5401288  13.6719608  33.8176346  85.3113318  13.1067085  33.7733006
  84.0400172  13.3368587  34.5618272  53.7778615  23.2634656  87.0294500
  53.6155748  24.1955392  87.1748340  53.0607270  22.8217046  87.4841935
 103.2245541  56.1749362  32.4217701 102.4941493  56.1429691  31.8039370
 103.7172700  55.3720760  32.2518849  90.9851218   1.1471557  24.9095821
  90.1720763   1.0441493  25.4041338  90.8618356   1.9552898  24.4116402
  72.9414940  92.7582264  41.9075060  73.2606745  91.8868923  41.6726875
  72.8371382  93.2089424  41.0695362  55.1646757  97.1167374  22.3248386
  54.7777939  96.6864586  21.5623379  54.4524717  97.6410770  22.6909924
  92.8400899  18.2401275  37.5880980  93.5763217  17.6284694  37.5961399
  92.3091746  17.9858302  38.3428788  70.3239298 104.7209072   2.9691458
  70.5642271 104.1947365   3.7317964  70.0459290 105.5604553   3.3353496
 107.1404026  29.0950506  90.3655613 107.8416703  29.7382181  90.4694502
 106.5018032  29.3259065  91.0401926  28.7900519  63.3685637  11.3789368
  27.9334211  63.6697102  11.0760760  29.2516661  64.1696310  11.6267967
  83.6894512  58.9136600  13.6849475  83.8025570  58.3842421  12.8955472
  84.5728397  59.0017653  14.0428519 101.5678120  96.9166756  30.0704789
 102.0850277  96.6210461  30.8196998 102.0180607  97.7039242  29.7642946
  14.6073344   4.9280929   9.2003000  15.3713133   4.4123268   9.4582993
  14.1345503   5.0814723  10.0183296   2.4978735  18.3533763   2.8558341
   2.8219511  19.2470836   2.7440390   2.5868180  18.1818675   3.7933335
  23.9098930  43.5445611  85.1704699  24.8293924  43.5094087  84.9068034
  23.4234428  43.5234563  84.3463642   1.6474154   2.8102302  37.7143550
   1.9541409   2.2235870  38.4057331   1.1890032   3.5098552  38.1797695
 104.4982577  22.2580528   9.3895590 104.5279599  22.6793765   8.5305840
 105.4171229  22.1424579   9.6315378  81.0625553  82.1108055  23.1591678
  80.5264854  82.0357132  23.9486122  81.1389732  83.0532646  23.0102897
  57.7979088  83.8713455   6.1051768  56.9169903  83.5551548   6.3057697
  58.0022669  84.4783497   6.8165278  35.9414768  71.0222387   3.5573664
  36.2919164  70.4498243   4.2398369  36.6877198  71.5572643   3.2870001
 103.4726001  49.9366187  22.1750236 104.3579007  49.9189758  22.5385642
 103.4198285  50.7735538  21.7135143   6.7830466  59.8537366  92.3266136
   6.4540481  60.7495229  92.4012120   7.4162292  59.8900621  91.6096797
  75.1550151  19.5058727  40.4864693  75.5640102  19.5555114  41.3504648
  75.2464534  18.5880565  40.2305698   6.1333659  11.9201183  24.0970016
   6.6314413  12.5373458  23.5611010   6.4753058  12.0417690  24.9827266
  97.9605533  36.6454505  31.6263819  98.4043361  36.1201667  32.2922421
  97.8146125  36.0386276  30.9006381  24.8202418  54.8898809  66.5089190
  24.8461055  55.5307786  65.7984126  25.7316493  54.8060911  66.7891848
  26.6378331 104.7655010  18.9475501  26.2529397 105.5706787  18.6014545
  26.8548203 104.9749756  19.8559928 112.3904134  12.8520870  35.7106233
 111.9641353  12.9262351  36.5644503 111.7434216  13.1874084  35.0899816
  55.7404661  86.8786240  24.4040465  54.8175859  87.1242714  24.3393230
  55.7858610  86.3204002  25.1802945  89.9670077  41.3102340  27.6060629
  90.7541133  41.8353176  27.4611926  90.2972222  40.4513835  27.8697848
  56.1693668 103.3158779  36.3129735  56.3437223 104.1530991  36.7429781
  56.1600637 102.6776314  37.0262623  74.7931028  15.2274417  67.2360516
  75.1681329  14.9534797  66.3990784  74.8828245  14.4602012  67.8013086
  17.1556857  17.6301765  14.1848850  16.5407660  17.1962833  14.7763622
  17.8530695  16.9882583  14.0514052   0.9624817   6.1893081   3.0455199
   1.8175175   5.8285522   3.2800379   1.1646988   6.9497680   2.5004962
  30.3264379  87.5221460  69.6177543  31.1376237  87.0497243  69.8049248
  30.5094480  88.4248655  69.8782003  31.1844039  95.1523590   4.4590729
  31.1633968  95.6009197   5.3044051  31.2547278  94.2241764   4.6821353
  30.0241518  65.1376438  35.8071399  29.4742727  65.0064325  36.5795708
  29.8357606  66.0337877  35.5284524  30.8718156  39.1582601  80.0547850
  30.0929641  39.2636602  79.5084203  31.5687131  39.5952051  79.5652545
 111.5615464  28.2425784  19.6549284 111.0064746  28.8071823  20.1928401
 111.0082246  27.4893093  19.4484031  72.3635531   8.8875675  28.4321117
  72.0940996   8.9504146  29.3484497  71.6864539   8.3512782  28.0195999
  80.3798581   3.9090919   0.7385744  80.2803279   4.8594760   0.6829140
  80.7985450   3.6633968  -0.0863907  97.1941615  12.1631240  28.2548738
  96.4551974  12.2192096  28.8606977  97.9550649  12.0203399  28.8177872
  82.0371247   8.6810302  24.1484571  82.6372815   8.3850479  23.4640265
  82.3497201   8.2500171  24.9439096  19.5347976  81.6758268  76.0875166
  19.0458249  81.5889280  76.9058001  18.8837909  81.5246217  75.4022730
  46.0599755  27.4551122  85.2056706  45.3449392  28.0823057  85.0980199
  46.8482827  27.9499357  84.9821794  66.0428668   3.2529163  49.7576141
  65.2025247   2.8216743  49.9128294  66.2258387   3.7211704  50.5721664
 104.4025756  29.7444534  32.0629668 105.1252890  29.2198944  32.4075699
 103.6749459  29.1274928  31.9845438  44.5365286  74.0467358  43.5682392
  45.0874472  74.6210003  44.1001654  43.7861729  74.5901823  43.3276844
  62.4340582  78.0273199  49.9913263  62.6398182  77.0925140  49.9974728
  61.9083214  78.1516552  49.2011547  55.6154585  71.1424255  21.8090391
  56.1704874  70.5932760  21.2553167  55.9577322  72.0280790  21.6878152
  48.1166649  69.0730095   6.0825694  48.8549328  69.1004086   6.6912121
  48.1421709  69.9197197   5.6368470  63.9660311  68.4085035   2.2191408
  63.6617517  69.2109060   1.7951161  64.7757149  68.6635399   2.6614070
  62.2579432  79.5682192  21.8278980  61.6758728  79.0943718  21.2338495
  61.6682625  80.0615311  22.3981214  74.0041924  90.2800465  41.8123913
  74.9155712  90.3763485  42.0886993  73.8409805  89.3375969  41.8494844
 100.6357957   5.6336593  19.7474575 100.2379657   5.0705623  19.0834630
 100.1489449   6.4556026  19.6873868  59.6466446  91.1116791  13.9484036
  59.1672182  91.8788242  14.2612493  60.4299450  91.0783958  14.4975567
   0.9573605  14.1720676  29.4078636   1.5099671  13.4610748  29.7324395
   0.0697329  13.8144397  29.4293809  53.6372042  96.5810013  38.7160420
  53.0663157  97.2774887  38.3916521  53.9946270  96.1766052  37.9255080
  56.9144894   7.0077800  11.8213570  56.6087628   6.8253230  10.9328341
  56.1140753   7.1621704  12.3230863  94.0541268  47.2567939  26.6050982
  93.6974908  47.7396774  25.8595347  93.6641312  46.3854694  26.5348220
  86.9594146  18.7950992   7.6428020  86.4669848  18.1385707   7.1501404
  87.7112962  18.9979839   7.0862579  98.4478188   8.2252883  34.5236492
  97.9808713   7.4738025  34.8889732  99.2106820   8.3325385  35.0917816
  36.1812734  57.4135797  80.7434953  35.9096097  56.7504137  81.3780296
  37.1202325  57.5203435  80.8957684  99.8948623  16.5013313  38.1965923
  99.4887353  15.7728958  37.7268267  99.2127181  16.8126964  38.7915444
   8.3545878  33.4992313   4.3543151   8.6271574  34.2391395   3.8116536
   9.1667082  33.1768321   4.7451329  13.6510088  19.5866012   3.0755252
  14.1425040  20.2557659   3.5518485  13.7683585  19.8143005   2.1532381
  84.7788429  92.3281193  15.5883360  83.8582230  92.3167419  15.8501661
  85.2392578  91.9053078  16.3132346   8.9085677  21.2358188  37.6095605
   7.9721358  21.1820125  37.8004074   9.2342474  20.3477096  37.7559185
  66.9277716   9.4278723   2.4434285  66.1563683   9.8535836   2.0693439
  67.1118212   9.9238312   3.2411644  21.6306877  34.2821789  24.1467953
  21.5786719  33.3834672  23.8214612  22.2537470  34.2386389  24.8721457
  24.4244742  30.4719257  21.0212398  23.8761163  29.6941257  21.1240053
  24.1796064  30.8263803  20.1664686  66.4050791  28.5630243  87.9618788
  66.2026832  27.6630895  88.2176105  65.6676636  28.8272970  87.4117828
  31.7369294  35.2280450   5.7039899  32.3879194  35.0999117   6.3939375
  31.0582209  35.7657719   6.1119521   6.9997881 104.9822825  72.2257245
   6.2920855 105.1575201  71.6054952   7.2577284 104.0782564  72.0456183
  41.0189772  56.6968536   7.7437222  40.9629774  57.6308727   7.5419819
  40.2344084  56.3186073   7.3467201  33.9278603  60.0829649  33.2024980
  34.8021221  59.7482586  33.4021711  33.9280891  60.2019262  32.2527194
  34.3367958  43.5544968  11.6648102  34.0888762  43.2352591  10.7971382
  33.5257411  43.5234165  12.1722126  59.5794651  97.1485680  85.9521807
  59.9007913  97.4357098  85.0974697  59.9431225  97.7826708  86.5701580
  63.5418653  25.4881811  39.4747829  62.7954674  25.6579018  40.0495148
  63.9131165  24.6681118  39.8001909  83.9681861  92.1122664  88.5511354
  83.6309001  91.4860194  87.9106009  84.4347426  91.5735119  89.1901195
  53.5922813  38.4731627  33.8042665  53.3081007  39.2765856  33.3683968
  54.4787359  38.6667585  34.1091418  46.0626698  13.4299576  28.3702445
  46.3600826  12.6942956  27.8349113  45.5690718  13.9828336  27.7645040
  56.3812876  50.5893660  29.7777939  55.6893349  50.1374102  29.2949200
  56.6859865  51.2705851  29.1783476  69.1899399   5.3914707  85.9691936
  69.4724295   5.7186859  86.8232203  68.3902422   4.8989551  86.1539710
 100.4505084  93.5055006  18.3110058 101.0122941  94.1226245  18.7798214
  99.5656297  93.8517058  18.4266138  18.9919150  43.9395952  42.0386505
  19.4414580  43.3704376  42.6633120  19.6970570  44.4002819  41.5839291
 108.9386414  42.4327230  42.7126551 108.4304683  42.8472614  43.4098959
 108.3805282  41.7204523  42.4005461  38.4174132  31.7834783  42.7159119
  37.8555202  32.5108123  42.4485302  39.2919421  32.0345998  42.4186420
   4.9265963  27.0563269  14.9432003   4.5456466  27.8043151  14.4831753
   4.4934589  26.2935686  14.5600259  51.2819871  86.9079393  72.7474308
  52.2270390  86.8750113  72.8958321  50.9359225  86.1646979  73.2414580
  30.9660268  16.7932761   1.9486842  31.1921835  15.8761394   1.7939404
  31.2106299  17.2402847   1.1383846  46.2236759  82.3045462  88.4763405
  45.7616070  82.5735181  89.2703036  46.2958649  81.3530701  88.5519317
  55.3905913  99.8558300  87.2840435  56.0855266  99.2125242  87.1445626
  55.5943915 100.5646532  86.6739071  38.4386182  41.0991907  33.6539149
  38.8069892  41.1493492  32.7718616  39.2017579  41.0771704  34.2312908
  97.7326105  37.3874681  72.7799869  97.4125407  38.1011789  72.2282660
  97.7094934  36.6170804  72.2123516 111.8741224   2.8901737  90.2742341
 112.2317216   2.4482076  89.5041582 111.5445683   2.1808403  90.8260212
  32.1552968  13.1733370   4.1925302  32.4898171  14.0629578   4.3061212
  32.7026892  12.7978539   3.5028881  94.6667144   7.9698913  78.8024450
  94.3731258   8.6677091  78.2167054  93.9981029   7.9342287  79.4864905
  35.7775187  91.7514133  34.1174078  35.7057405  91.8128872  35.0699306
  35.9217620  92.6527977  33.8294244   6.2733489  54.9772358   6.6205305
   6.3040805  54.4273043   7.4033839   7.1214175  54.8404312   6.1982816
  37.3764324  47.2149420  20.3332043  37.4068499  46.5928030  19.6063995
  38.1639409  47.7482176  20.2251172   4.4318055  22.6248710  73.5165525
   5.3265094  22.5675218  73.8518834   3.9851045  21.8677108  73.8952351
  29.0659237  56.0404634  52.1875000  29.1178536  56.5831518  51.4007187
  28.6810541  56.6147089  52.8495789  40.6107044  28.4080958   4.5506084
  40.3737736  29.0971470   5.1713383  41.5436602  28.5446668   4.3857676
   5.0948714  75.1842254  72.1529305   5.1540087  74.2306369  72.0945728
   5.4525564  75.3940290  73.0156470  52.5858784  34.6796465  30.5728197
  52.8162432  35.4259276  31.1261988  53.3882618  34.4833636  30.0892067
   8.2546580  19.6717393   4.8831224   7.9500139  19.9285293   4.0127879
   8.9641273  19.0515065   4.7152042  11.8849146   8.1850243  42.8555536
  12.1765304   8.9093864  42.3019361  12.2874296   8.3570677  43.7067986
  38.3151579  10.7834232  10.5807495  38.9620113  11.0318375  11.2411296
  37.4967384  10.6937158  11.0689843  26.3519907  32.5467968  39.0308261
  26.1183929  33.2844782  39.5942855  26.8610120  31.9655800  39.5959067
  35.6886911  51.7649841  15.0774646  35.9720659  51.7885828  14.1634774
  35.0894761  52.5066614  15.1616681  18.5261083  46.2421417  11.6385126
  19.3922257  45.8783770  11.4547992  18.4296894  46.9592810  11.0118985
  22.6888751  20.4364507  91.1881262  22.4639796  20.9656255  90.4228634
  22.6538610  21.0498254  91.9221431   8.7171983   3.6686914  92.7746539
   9.4461202   4.0958803  92.3247519   8.5479974   2.8792350  92.2604956
  28.3005929  45.0938463  27.9910636  28.9570951  45.2976704  27.3249626
  28.4460640  44.1702271  28.1959987  37.5746465  41.6895199  10.0589573
  37.5501871  42.6335526  10.2152658  38.4043598  41.4047432  10.4419827
  76.0390016  90.8525436  78.1826699  76.1162898  90.5588596  79.0904188
  75.4340383  91.5933269  78.2212830  13.1066787  34.4375277  12.3735309
  13.4809446  34.8539019  13.1499255  12.2071350  34.7627234  12.3374724
  83.2818648  96.8150204  75.3425813  82.6738450  97.0828217  74.6535027
  84.0983054  97.2675579  75.1307607  68.9336416  83.9634197  74.1926611
  68.1552049  83.4868162  73.9043618  69.6569702  83.3553594  74.0400410
  56.9785738  47.4124527  34.5759130  57.6400709  47.2815609  33.8965631
  56.5859222  48.2602215  34.3677044  25.6977224  60.8097649  31.1274600
  25.6135798  61.4087963  30.3856277  26.6418266  60.6997108  31.2405515
  30.8753586  41.6454840  29.5718837  30.4883718  42.4794436  29.8383117
  31.7154312  41.6141653  30.0296307 109.6998011  53.2785082  38.5219550
 109.6754302  52.8908348  37.6471162 108.8923036  52.9786396  38.9393950
  13.8622749  32.8712440  20.7652903  13.1575572  32.9336762  21.4100432
  14.6062553  33.3073592  21.1806536  45.5045033  34.9957466  18.5504818
  46.3860655  35.2965951  18.7708545  45.1747084  34.6067309  19.3605030
  63.9956376  83.1390851  57.1464503  63.0643770  82.9804199  56.9921339
  64.1678545  83.9817708  56.7263806  84.6243286  52.2188282  16.8339026
  84.2128944  52.4634171  16.0049689  84.5966530  51.2620640  16.8419039
  88.6104724 100.7935827  79.0058649  89.0300032 101.5330904  78.5661400
  88.0995747 100.3650635  78.3191431  84.9544522  97.0542687  92.2084763
  84.5381543  97.7302807  91.6737447  85.3409001  96.4509934  91.5736948
  23.3492780  20.4765153   7.4919802  23.5486770  20.0313377   8.3155626
  22.5381207  20.9533405   7.6677448  68.6667156  53.1802368  28.3849502
  67.7687883  52.8725195  28.2613730  68.6722946  54.0602303  28.0083680
  48.6077404  23.2126069  28.1965852  49.1159296  23.5846090  27.4757600
  48.1407785  22.4746871  27.8046012  24.1570473  50.4950523  14.0196347
  24.7592974  51.2265968  14.1551578  24.0285587  50.1255941  14.8932612
  34.9679446  42.7129364  22.9564404  34.5406985  42.5878143  22.1090722
  34.4688272  43.4142494  23.3750963  38.3899450  52.6752901  25.4668880
  38.3363271  51.9177198  24.8842692  37.9026008  52.4120331  26.2475443
  22.3251152  49.2821646   8.8942629  22.9690099  49.8667622   8.4944189
  22.5407434  48.4160233   8.5485256  66.8235493  58.8425016   1.4962012
  66.0020685  59.0688848   1.0601370  66.7558527  59.2486286   2.3603252
  72.1752197   6.7072790  85.5407244  71.7409048   6.0685174  84.9754072
  71.7348862   7.5352781  85.3489930   1.2197883   6.4205635  17.3754013
   1.4045238   5.6493002  17.9113650   0.2993310   6.3268358  17.1300340
  25.4726005  13.6799943   3.0891255  24.6613574  13.5539544   2.5969559
  25.6837869  14.6059394   2.9697195  68.1979990  62.4290371   3.1139147
  68.3888721  61.9380140   2.3147318  67.9775429  63.3087158   2.8076491
  59.8597240  68.8350916   1.3589959  59.3824768  68.2496977   1.9470267
  60.4587317  68.2600498   0.8828096   2.5332783  57.7824351  43.8691557
   1.7662714  57.9486778  43.3211649   2.6964615  58.6153095  44.3117893
  30.1886773  49.1015863   4.5424271  29.8039985  49.8666811   4.9700728
  30.3487921  48.4837246   5.2557611  35.3622436   7.6868360  82.9623151
  35.8715152   6.9270818  82.6800835  34.4813298   7.5232236  82.6254928
  73.8844824  69.2116928  27.2987771  74.5779324  69.2763042  27.9554248
  73.2776880  68.5623741  27.6543260  71.6175318  45.8290291  29.7471976
  71.7650557  45.0265503  29.2467070  71.9561529  45.6322432  30.6206059
  94.9117514  81.8028634  72.8433335  95.2962538  81.8626111  71.9687951
  94.9346587  82.6997965  73.1768322  22.7754307  68.8095188  16.5948200
  22.9053426  68.4676743  17.4794078  23.6121607  68.6595297  16.1548018
  28.3317137  58.9279222   6.2267709  29.2265511  59.1303968   6.4997274
  27.7795243  59.4428015   6.8151748  43.9483929  34.7847509   0.6110053
  44.4016552  33.9540243   0.4672049  43.7183905  35.0873041  -0.2675112
  45.9505367  55.1626205  29.7490311  45.7458353  55.9774494  30.2077079
  45.6998014  55.3296995  28.8404894  35.2412152  58.3370161  42.5499392
  35.8356595  58.1502724  41.8233109  34.3904638  58.0147409  42.2522926
  98.5954711  87.9709905  86.9190598  98.8385293  87.0723360  86.6964084
  98.6704585  88.4507602  86.0941792  52.2167253  58.4710932  16.1800480
  51.8715906  59.3091249  16.4879739  51.7572451  57.8154993  16.7047429
  90.0602051  96.4375370  90.5298829  89.7550151  96.3063543  89.6321732
  89.7803876  97.3259228  90.7505749  41.3131973  95.4120129  72.0208037
  40.8446234  96.1165970  71.5733278  42.1906701  95.4274862  71.6386617
   6.6733693  48.0388563  66.6193474   6.0107326  47.6039617  66.0826791
   7.3789167  47.3965375  66.6958893  21.9107032  37.3671460   9.9572551
  22.3092937  36.5029335  10.0597012  20.9962964  37.1850133   9.7406459
  33.8557148  58.9050627  11.6077936  34.6688581  59.2149210  11.2090266
  33.5737610  59.6273708  12.1690440  43.5806131  47.1696949   1.9288799
  43.9163494  46.3231802   2.2237147  43.8290358  47.2175169   1.0057162
  63.7337637  49.4048643   9.5866460  63.0355835  48.8597918   9.9495173
  63.4312296  50.3028965   9.7217107  38.5209250  31.3378310  45.7961893
  39.0394258  30.7908845  45.2060747  37.7230191  31.5314507  45.3041649
  19.7693563  63.3793402   1.4871649  19.7929120  63.6044788   0.5571164
  19.3558967  64.1342640   1.9059417  86.9390891   6.9064014  76.2672699
  87.6333091   7.4552648  75.9025300  87.2396598   6.6960495  77.1513748
  14.9148214  47.7809048   8.1379342  15.2224553  47.4281120   7.3029906
  14.3432057  47.0986891   8.4901661  82.1916815  95.3882235  86.8896687
  81.6735789  94.6925514  87.2944421  82.5940987  94.9739378  86.1263460
  68.8309956  42.8353691  19.1068494  68.1026745  42.6688147  19.7052121
  68.6725187  42.2485018  18.3674538   0.8494519 106.6588371  90.6678035
   1.6387270 107.1171587  90.3793326   0.5063389 106.2495344  89.8734629
  45.4288769  42.1791315  12.8473485  45.6571531  43.1063890  12.9130483
  44.5025778  42.1430254  13.0858934  71.2253210  92.5245874  90.9969008
  71.6472694  92.9572099  91.7392131  70.9843322  93.2398336  90.4081899
  32.1581124  63.4684484  90.5962742  32.9604339  63.3869665  90.0806402
  31.6489219  62.6896589  90.3716576   9.8026513  43.8891618  76.2525904
  10.3173637  43.6577337  75.4794538   9.7888421  43.0899446  76.7791713
  40.0124216  29.4238353  12.2316194  40.8987141  29.6038675  12.5451481
  39.6094775  28.9122939  12.9331851  19.7134840  66.3782501  16.4536357
  19.2278314  65.5782843  16.2525761  20.6336117  66.1228704  16.3874662
  26.9042920   8.5284011  85.8050061  26.1991214   7.9013984  85.6442786
  27.2233104   8.7589233  84.9324709  58.1211281  67.4538040  17.2442687
  58.4260607  68.3264446  17.4927688  58.8011694  66.8618822  17.5658369
  36.3933444  86.6781998  14.4853759  35.6024504  86.1967468  14.2426491
  37.0435238  85.9979343  14.6607089  64.3833968 104.3315428  66.1452735
  65.1738974 104.2760866  65.6083691  64.0371558 103.4392088  66.1546648
  96.1645839  27.6794260  69.2974460  95.7806704  26.8185346  69.4639266
  95.6030366  28.0662458  68.6256826  43.2795334  28.6643171  36.1222363
  43.8439035  27.9153395  35.9305334  42.7874374  28.4006023  36.8997502
  37.4726892  93.1825924  39.1849732  37.5919724  92.8033638  40.0557137
  38.3618498  93.2950306  38.8488436  15.9486770   2.7205675  75.8455754
  16.0292291   3.6553543  76.0350824  15.5058192   2.6853578  74.9977148
  61.8321514  45.7654190  28.6856747  62.3562241  45.2180147  29.2704225
  62.2577095  45.6802893  27.8325129  19.7874153  79.3340540  45.7575369
  20.6268001  79.7492170  45.9557915  19.3850827  79.1865444  46.6134548
  60.0797081  23.8729239   4.0677005  60.9452581  23.7444496   3.6796916
  59.5598698  24.2684054   3.3679906  33.5450411  64.0575361  26.6986847
  33.0096483  63.9466810  27.4843693  33.2311416  64.8730755  26.3080502
  95.2299473  22.7227657  85.5180276  94.5043645  22.1724002  85.8127421
  95.0166867  22.9337375  84.6090484  79.4629366   0.9716051  78.4230125
  78.5538144   1.1102216  78.1574691  79.9755401   1.1870353  77.6438725
  10.6482314  16.6029088  76.4139319  11.5266179  16.3605611  76.7070806
  10.1097821  16.5526550  77.2037280  32.4508309  18.3413172  24.9196506
  33.3487368  18.4943461  25.2138948  31.9877863  18.0498981  25.7050776
  19.9162673  33.3406274  69.3934357  19.8183822  32.5619237  68.8454640
  20.8610629  33.4267728  69.5206273  36.7582750  41.0841036   5.1645958
  37.7153444  41.0713673   5.1552129  36.5081716  40.9657621   4.2482573
  18.8270044  33.3382146  81.8603647  19.0475177  34.2074125  81.5255440
  19.2229222  32.7326028  81.2336910  98.1945082  97.7413433  86.4123565
  98.2417151  98.3189076  85.6505037  97.4598691  97.1570700  86.2248212
  18.9505363  96.6264725   1.1462437  18.6498260  96.9484425   1.9960317
  18.8290250  97.3675251   0.5526864  20.0876093  34.7381926   4.7308594
  19.2085552  34.4831061   5.0109100  20.6652212  34.3948483   5.4125559
  22.6635504  54.4079494  14.4340086  23.2894921  55.0988913  14.2171490
  21.8130493  54.7674608  14.1817665  93.0860421  92.9357761  85.9768522
  93.8165757  93.0126780  86.5905607  93.1645629  92.0507734  85.6207157
  65.7320186  72.9366844  55.0049174  65.9261796  73.7796062  55.4148162
  65.8166048  72.3000615  55.7146967  37.8103042  61.2737417  12.6864350
  37.8795338  62.2281265  12.6620257  37.3268580  61.0891867  13.4916997
  36.0892272  21.3113022  13.4571671  36.8127537  20.7429004  13.7210989
  35.7001328  21.6023064  14.2818809   8.2043504  17.1412485  87.7187503
   7.4040221  16.8854444  87.2601986   8.5610294  17.8591793  87.1956963
  39.3311048  22.6655245  25.5368137  38.7174082  22.5359130  26.2598658
  40.1946783  22.5403428  25.9302640  57.7508831  56.3767195   9.3131196
  58.5406399  56.5475941   9.8262668  57.6511669  57.1525764   8.7614566
  10.3481673   6.5121763  75.9319198  10.4804277   7.4174135  75.6503415
  11.1354350   6.0529201  75.6394613   6.3842010  11.5685289  84.3803364
   6.0242080  11.0443799  83.6648608   7.1898841  11.9412725  84.0223205
  64.3729353  71.9822741   8.5567302  64.0780687  71.6505957   7.7086294
  63.6069822  71.9012547   9.1250449  24.7709608  73.8578844  49.4689655
  25.3923154  73.9988422  50.1833057  25.0929523  74.4126415  48.7584734
  16.3931775  74.1500998  19.1159403  15.9375453  73.3098555  19.1671681
  16.8786871  74.1094398  18.2920110  97.0498845  85.6220906  91.4293349
  97.8611180  85.8517736  90.9761545  96.3556668  85.9623664  90.8649700
  27.6121569  44.0746069   6.7732048  26.9834805  44.0486050   6.0518736
  27.1940327  43.5736370   7.4735117   1.7554139   2.7459829  68.5686744
   1.1890291   2.9530256  69.3120277   1.1604690   2.6977842  67.8203762
  26.4553905  34.1926050  19.3585217  26.4130187  35.1266456  19.1535640
  26.2171817  34.1394472  20.2840829  49.1083488  88.9198177  87.0222879
  48.1664333  89.0580791  86.9227320  49.2587110  88.0389612  86.6791886
  72.6692152  74.4930172  21.5577006  72.5616407  74.2469692  20.6389403
  72.5901699  75.4469395  21.5610242  83.8077876  71.3447505  68.3763993
  83.8409898  72.0198958  69.0541232  83.0227277  70.8372312  68.5821665
 110.6323005  52.4464130   7.8622031 111.4954939  52.1647120   8.1651443
 110.8054137  53.2306623   7.3414189  15.5906200   1.3267486  81.0479939
  15.0154447   1.4058464  80.2869773  16.4746141   1.4046924  80.6892300
   7.3106145  38.3700197  79.7433210   7.1398591  37.9300134  78.9105749
   7.5993632  37.6702707  80.3291571  95.1800082  19.9568813  69.6303165
  94.7858689  20.6104486  69.0526164  94.5552418  19.2316978  69.6329964
  20.8289695  77.7009583   2.3465870  19.8968089  77.9128933   2.3954789
  20.9994793  77.5847960   1.4118865  42.3539305  66.3178015  34.2300224
  43.2933569  66.4766216  34.3221569  42.1666670  65.6185865  34.8563266
 108.1236217  33.2419984  90.0285295 108.3801529  34.1089742  90.3428200
 107.3572180  33.4037797  89.4783607  42.3959017  46.6153622   9.5912731
  42.8348017  47.4618959   9.6748108  41.8168163  46.5697002  10.3520656
  61.6946267   6.4970415  82.4546254  61.7536973   6.0495632  83.2987255
  60.9728097   6.0605876  82.0021594  30.7470417  47.5973940   6.7946279
  31.6535449  47.6390886   7.0991689  30.4620075  46.7097950   7.0117891
   8.6364383  49.3129921  49.6437407   8.2721972  49.8637724  50.3367090
   9.5317149  49.6319914  49.5299387  33.4387493  63.5370636  16.1047733
  33.4267259  64.4614410  15.8565617  34.3617153  63.3458138  16.2714767
  34.1415223  84.7967737  60.1188863  33.8723999  84.2897862  60.8848942
  33.7386831  84.3436711  59.3781746  35.8032179  53.6563635  21.7188406
  35.4462647  53.3847284  20.8732462  35.2005768  53.2855606  22.3634768
  60.3916645  69.4897890  12.6850474  60.8774233  70.2974558  12.8522062
  60.9364223  68.7998915  13.0638826  56.9044682  92.2486871  89.3575543
  57.2786280  92.3749750  90.2294994  57.4949214  91.6275304  88.9312196
  29.3994474  90.5399799  18.9388061  29.6826005  90.9135437  19.7733736
  30.0612688  90.8285809  18.3103704  84.2500877  49.3981457  25.7908487
  83.4373188  49.4508028  25.2879834  83.9640903  49.3271446  26.7015624
  11.2985086  17.0668714  64.4773352  11.9849967  16.4165657  64.6258843
  11.6480731  17.6308362  63.7874234   0.9834503  32.5300615  83.3756048
   1.8912052  32.6736944  83.6431504   0.9404277  32.8703611  82.4819744
   4.2071962   0.3409641  86.9949371   3.9488935   1.2275045  87.2470421
   4.2851304   0.3761785  86.0415656   4.7634840  25.0838256   0.2629293
   5.7030141  24.9167418   0.3377504   4.3904799  24.7175908   1.0647839
 105.9757468  92.5748270  84.2421699 105.1876828  92.2901791  83.7793941
 106.1377570  93.4603994  83.9169813  61.9181395  51.6566944  15.3368235
  61.1381721  51.1142874  15.2198756  62.4226713  51.5270090  14.5337892
  16.8168616  62.4741077   3.4785199  16.8343687  61.9324255   4.2675105
  15.9406507  62.3418522   3.1165880  25.7114220  19.5759130   4.8806617
  25.0814009  18.8752389   4.7122651  26.3529587  19.4959140   4.1747826
  31.6261958  23.1610363  58.1433094  31.5707206  23.3449571  57.2055853
  31.4978313  24.0120380  58.5622990  54.3594190 100.9200113  89.7773987
  54.6736547 100.5451983  88.9545954  53.6917850 100.3050297  90.0811988
  27.3264003  42.4679995  12.3829973  26.9363570  41.5984488  12.2937047
  26.6686678  42.9781532  12.8556097 103.4056304  37.1921461  87.4220479
 104.3136571  37.1914690  87.1191931 102.9311655  37.6888006  86.7553741
  36.7515945  88.4534740   2.8521886  37.2483492  87.9792786   2.1853954
  37.4003196  89.0092182   3.2840878   2.8550147   3.1031482  91.5251637
   3.0479955   2.2771852  91.0815776   2.9217242   2.8957336  92.4572364
  50.2666998  28.9255023  19.8435652  50.4973221  29.2933655  20.6966329
  50.7194233  28.0825830  19.8159146  75.0428343  50.3067350  10.1161194
  74.4951200  50.3487921   9.3322361  74.6045303  49.6700239  10.6806743
  71.9855022  50.7522202   4.5504555  72.2410059  51.5201426   5.0615722
  72.7968836  50.4602623   4.1349417  78.6626527  96.8527573  89.0392775
  79.5144412  97.2888868  89.0175093  78.6219641  96.3654774  88.2163963
  31.0751271  40.8837366   9.8672801  30.8564281  41.5324974  10.5362439
  30.8236146  40.0455856  10.2551854  71.3574982  51.4631557   1.0605477
  70.9527731  51.3446331   1.9198385  70.9824610  52.2793102   0.7296783
  20.9297729  66.1452579   5.1828122  20.3758407  66.6830587   5.7486379
  20.9757948  66.6320992   4.3599534  96.9159552  92.4926012  80.9915483
  97.0005032  92.7365463  81.9132722  95.9906098  92.2715538  80.8862007
 102.2633836  93.3318227  75.6870258 101.8708321  92.7146047  76.3044238
 102.8949067  93.8252037  76.2104595  50.6780863  40.9862757   2.2714446
  50.2123690  41.1800718   3.0849445  50.7472849  41.8316555   1.8278502
  20.9166527  61.1707687   6.1324549  20.8871269  60.2249908   6.2768883
  21.5322304  61.2833452   5.4081458  14.1450977  27.8523366  88.2032919
  15.0586557  27.9049413  87.9224497  14.0978002  28.4204786  88.9721930
  46.1503458  57.3152685  10.1116669  46.0836887  57.5638151   9.1897058
  46.6407013  56.4932489  10.1032770  30.3615665  45.0793219  11.7798984
  31.0147333  45.1118565  11.0809374  30.8748960  45.0836754  12.5878012
   3.2712649  -0.3648884  83.1749755   2.9600810   0.0959318  82.3958469
   3.7669181   0.2941291  83.6610419  15.8067679  81.8434715   5.2436972
  16.0213578  82.4966240   4.5776784  15.6371331  81.0425186   4.7477898
  43.1365538  70.4395294  39.9568534  42.4295378  70.4790258  40.6009054
  42.7278948  70.0680017  39.1750622  40.4008865  67.2297001   4.6790662
  40.5990744  67.5623703   3.8036895  41.2274599  66.8577528   4.9867490
  63.9938498  57.2282505  19.4003201  64.7257376  56.9984913  19.9728441
  63.4681654  56.4298105  19.3514752  66.3884640  89.4783306  15.2143836
  65.5793667  89.1111183  15.5704069  66.7426920  88.7837791  14.6590829
  68.7963533  83.0633736   8.6164546  68.4383059  82.4338436   9.2423397
  69.2381716  83.7161636   9.1594929  21.6094252 103.6924236  83.5299164
  21.6392717 104.2160433  84.3306458  22.3442098 104.0127533  83.0067420
   1.7811584   9.5311182  76.7637766   1.9747352   9.6000497  77.6986599
   0.8355402   9.3878334  76.7249108  36.1299729  32.3805857  13.0816734
  36.9012713  32.7278137  13.5297370  36.4843369  31.7839718  12.4223483
  51.5984488  58.1768084   1.2321581  52.4393511  58.1954575   0.7752463
  51.4658308  59.0778780   1.5266329  20.9731292   8.1775444  90.2035906
  21.7955970   8.2275026  89.7164780  20.9356879   7.2743671  90.5183891
   5.4415321  26.3111846  82.2651661   5.1197814  26.8405263  81.5354359
   4.9925851  25.4713886  82.1681011  68.0549094 100.1256579  79.2549765
  67.3410365 100.1795261  79.8903644  67.8019377 100.7316654  78.5585606
  83.1261874   0.4551601  28.4478879  83.1779004   1.1826610  29.0678120
  83.0616380  -0.3248978  28.9988685  38.3418775  95.4669285  28.8954616
  39.1090655  94.9994183  29.2257476  37.9570794  95.8741474  29.6715593
  75.3568697  31.7930746   4.6120262  75.2405119  32.2544003   3.7814417
  75.6967640  32.4586535   5.2101129  87.7823303   1.4689128  76.8075371
  88.6609135   1.8161981  76.9615448  87.2111497   2.0136182  77.3490954
 112.6788327  95.6077736  84.9098677 112.0070073  96.2711638  84.7523922
 113.3254191  95.7530325  84.2191738  43.5751772  79.3634796   0.8692748
  44.4601870  79.0607929   1.0726736  43.0754519  78.5605478   0.7215960
  38.7323666  38.2247233  25.0061893  39.3811226  37.6389241  24.6160746
  39.0243435  38.3369923  25.9108329  39.9368596  45.7973480  27.0441890
  40.4073429  46.5885735  26.7818189  40.2926016  45.1094961  26.4815688
  57.6830575  99.8556059  78.8859976  58.5407874  99.4782227  78.6907780
  57.2617075  99.2112368  79.4547534  74.0632057  80.6521225  32.8016472
  74.2503071  81.5742302  32.6257086  74.7783947  80.1775360  32.3779750
  62.0187712  83.4457874  28.2213521  61.7831469  83.3384800  27.2998333
  62.4595356  82.6281834  28.4526420  26.7714572  55.7552385  15.3450668
  27.5112176  55.2457809  15.6758833  26.2966561  56.0260582  16.1308479
  85.0985813  84.0373611  22.7229428  84.8735142  83.1227112  22.8932285
  85.6958675  84.2731953  23.4327698  78.7018204  47.7638674   8.5618919
  78.4151125  48.6434460   8.3161837  77.8924036  47.2980309   8.7718338
  40.8973837  58.7473249  24.4123769  41.2201118  58.8086939  23.5133147
  40.8636570  57.8075695  24.5911241  14.2709374  42.1210146  -0.1739135
  14.4565260  42.4470377   0.7067084  14.9636197  41.4826298  -0.3438902
  26.4119529   1.4976852  77.9267562  26.6031455   0.6537883  77.5174630
  26.3072633   2.1020477  77.1918965 109.3967435  79.0461534  83.0418349
 108.7299582  79.4475525  83.5990662 109.9564358  78.5619729  83.6489147
  36.9977474  60.7358694  28.6899471  37.1296453  61.6786289  28.7901497
  37.8819036  60.3691339  28.6885691  55.1065397  44.3726730  36.9001555
  55.8586216  44.9162531  37.1349263  55.4716587  43.6876011  36.3401556
  18.4311246  41.9099538  65.8248604  19.3283986  42.1462648  65.5897320
  18.5204076  41.4049356  66.6330803  36.4078283  80.0927544  42.8446245
  36.5289402  80.4597282  43.7203503  36.3276911  79.1499090  42.9890156
  48.4401131  52.7256966  28.7974000  48.5350847  53.4455585  29.4211078
  49.2351198  52.2046518  28.9101410  38.8908648  67.2801018  39.4322467
  39.7381735  67.5533295  39.7838855  38.2813883  67.9593086  39.7211099
  31.5387439  12.3524063  82.3125029  31.2690686  13.0037420  81.6649950
  32.3034715  11.9291275  81.9222939  26.7246818   4.3005006  91.9728881
  27.4169397   3.6823146  92.2071130  26.0456037   3.7586563  91.5710324
   0.5556273   3.0491750  73.6409533   0.3102278   2.1550624  73.4030986
   0.9931516   3.3927219  72.8619945  16.4812612   3.1093996  88.0992428
  15.7853078   2.9874532  87.4534804  17.2869872   3.1260936  87.5827593
  39.4575453  70.6341124  22.6296902  39.9107528  70.7380438  23.4663725
  40.1359892  70.3322506  22.0256829  84.1444016  40.4991484  17.7658117
  84.9296665  40.5155182  18.3129132  83.4518051  40.1906490  18.3500874
 105.7102344  43.6937158  53.6729181 105.0353143  43.1355112  53.2867635
 105.7226775  43.4492414  54.5982850  57.7515718  99.2448204  89.6908886
  58.0488774 100.0410574  89.2506129  57.4618098  98.6723297  88.9805898
  50.9251785  43.3423138   5.2189147  51.2414265  42.8931904   4.4350106
  51.2947369  44.2230415   5.1558650  25.2125764  60.0520325  10.4344952
  24.5700502  60.6840611  10.7568765  25.1426077  59.3111134  11.0364711
  24.0671252  57.5582044  69.2343891  24.8166131  57.5113409  68.6408365
  24.2736053  58.2833402  69.8241127  85.2929688  34.3041778  30.1008964
  84.7724056  34.2400599  30.9016061  86.1964703  34.1813493  30.3921342
  40.6824207  79.9459362  20.6387377  40.2656794  79.2756844  20.0971484
  40.5165291  80.7663536  20.1743817  70.5406427  59.7816896   9.5982367
  69.9221992  60.4760218   9.8255348  70.8697176  59.4687653  10.4408622
  99.9749396   3.4472721  83.8359195  99.5614860   3.8071792  83.0512202
  99.4589565   2.6679723  84.0425194  37.0692158  70.8783054  24.0926290
  37.2075891  71.6154528  24.6873522  37.9351687  70.7011414  23.7252474
  58.6951303  60.3645277  15.1433158  58.6935043  61.0479021  14.4730723
  57.8593588  59.9127197  15.0267458  64.0911436  47.2251225  20.2383375
  64.4009113  47.3628187  21.1334991  63.1868839  46.9283867  20.3407884
   2.1591567   9.2239110  88.1616909   1.8248748   9.7679441  88.8747934
   3.0592679   9.0213697  88.4166611  89.6485612  91.9352692  65.5942619
  88.6921212  91.9733542  65.5958188  89.8890683  91.9932859  64.6695888
  22.3956632   0.1958196  83.5654486  23.3458327   0.0956504  83.6235416
  22.0961379   0.1704090  84.4742227  10.7558726  48.6016767  88.0991006
  10.8861827  48.5520380  89.0460891   9.9459123  49.1009634  87.9946310
  17.4411178  47.3427963   6.4925337  16.9397569  48.1100225   6.2164253
  18.2985854  47.6918364   6.7357445  20.7662416  30.8515525  19.6280837
  20.3474426  30.0134134  19.4322145  21.6421962  30.6159616  19.9337494
  54.0747833  32.4706221   9.6933293  53.6663389  32.3754334   8.8328958
  54.6557045  33.2257009   9.6004832  28.8091922  25.7365561   9.5697027
  29.0019679  25.1555681   8.8338220  29.3768001  26.4947796   9.4313127
  46.7139435  47.5005102  11.2490618  47.0185661  47.0254374  10.4759216
  47.4432707  48.0761147  11.4792597   4.0606307  23.8699882  70.7706797
   3.5329913  24.6103351  71.0702074   4.4620990  23.5239618  71.5677488
  56.7771101  34.5140576  20.2164531  56.9138670  34.6991348  19.2873263
  57.6411200  34.2583275  20.5394316   5.2813858  45.2298355  20.7509160
   5.0903130  45.3928900  21.6745710   5.7344246  44.3866539  20.7452726
  80.1344773  88.9919632  68.1560600  79.5813748  88.8257998  67.3927152
  79.5907828  89.5275872  68.7337554  62.5246307  73.2387345  83.3991546
  62.9717681  73.3740061  82.5636906  61.7103216  72.7931040  83.1655968
 101.5473697  47.6400774  86.2994963 101.5456984  46.6979330  86.1304063
 102.0832608  48.0085199  85.5971414  98.6877200  95.7721823  42.5026644
  98.6219498  95.3734129  41.6349686  98.0791566  95.2694243  43.0440653
  48.5115623  62.8925753  15.3141856  48.1172991  62.0824528  14.9909317
  49.4509029  62.7098179  15.3357577  99.4308090  31.8881416   3.2709149
 100.1155376  32.0677042   3.9152247  98.8340759  31.2870288   3.7167853
  63.7459660  68.5427523   7.0047832  63.2385397  67.8350735   6.6073620
  63.5053110  68.5191536   7.9309380  68.0761719  57.5784206  18.1726515
  67.6499176  56.7997217  18.5306621  67.8832722  58.2696486  18.8060737
  10.8875549  81.8685627  23.2746625  10.6449461  80.9521008  23.4068179
  10.4279017  82.1251202  22.4752045  77.5904080 105.7547443  73.1252504
  78.4706971 106.0681646  72.9176712  77.5297519 104.9048060  72.6891816
  31.9852948  53.6430693  53.7871027  31.1069083  53.9963245  53.9280987
  32.2955251  54.0816736  52.9948807  16.6502559  31.6261363   2.4438804
  17.2132969  30.8916879   2.1993354  17.2256052  32.3904037   2.4107201
  31.1534238  62.4025488  37.1708107  31.7602158  62.7232742  36.5035987
  30.8854175  63.1877661  37.6481342  84.1881118  10.8356111  72.0300830
  83.3582375  11.3099449  72.0805514  84.0298942  10.1438110  71.3877333
  13.2564008  23.1297565  16.3158274  13.2944441  24.0845561  16.3718832
  12.6375735  22.9559398  15.6065500  59.2510462  76.6216230  12.6769483
  59.5617437  77.3421001  12.1286690  59.1101360  75.8988285  12.0654392
  29.1163253  23.9433639  87.1272123  29.8660850  23.8407009  86.5410799
  28.5450935  24.5667093  86.6784704  51.3561296  76.4583540  24.0514898
  50.4995632  76.8837023  24.0114164  51.2303305  75.7224655  24.6505523
  23.3808088  44.8374557  11.4733696  23.6692095  45.7036686  11.1857367
  24.0917778  44.5211697  12.0307910  63.4637785 100.5150127  12.2227883
  63.6018848 100.7584858  11.3074291  63.4458923 101.3489342  12.6923573
  47.7089119  93.6458874   4.2466125  47.5878954  93.9909267   5.1312244
  47.4937725  92.7161217   4.3206599  23.1553769  90.4606056  23.0691981
  23.0502009  90.7406902  23.9784408  22.7416134  91.1542606  22.5555134
  62.2697779  79.4501203  79.9399543  61.4050457  79.6085589  80.3185964
  62.8536197  79.3838113  80.6955755  51.9369316  55.5866623  20.8984089
  51.4036512  56.2457752  21.3427162  52.7442932  55.5464935  21.4110327
  76.1430169   3.6362075  16.9963253  76.9122911   3.6495017  17.5657737
  75.4051925   3.7880325  17.5869155 108.7060950  40.7492368  84.3282497
 107.7988718  40.5361478  84.1096849 109.1823242  40.6421392  83.5048616
  22.6680469  28.9050882  63.0872596  23.4850549  28.5410326  63.4281314
  22.3972510  29.5442312  63.7463415  99.7169778  36.1435716  79.2469073
 100.6724832  36.0961168  79.2783320  99.4953153  36.8847291  79.8106289
  42.4606228  90.1497078  51.5089893  42.8453875  90.8575916  50.9921789
  43.1599712  89.5004654  51.5839815   1.2840126  96.1188095  83.0123782
   1.4475058  95.1787060  83.0878824   2.1040676  96.4780968  82.6737607
  34.7901343  30.9583967  83.1984800  34.0756654  30.3969877  82.8974879
  35.4768657  30.3484075  83.4678066  51.3111924  31.3761919  69.8905766
  52.0953511  31.7574041  69.4956196  51.4170598  31.5297143  70.8294332
  10.4085874  42.5335996  83.3804059  11.0963487  42.9777639  83.8763273
   9.7778987  43.2236497  83.1747425  18.3910274  25.2121561  75.7632292
  17.7883624  24.5754497  76.1474479  18.9750146  24.6884410  75.2146733
  60.2670621  23.6673372  66.6209233  59.8518323  22.8350465  66.3948596
  61.1292123  23.6250322  66.2072361  75.1604986  81.8700600  12.9029214
  75.5959558  82.2641850  13.6587477  74.8848057  82.6156139  12.3696625
  99.8014164 101.8705463  35.5349112 100.3210640 102.0795059  34.7586870
  99.7034645 100.9187317  35.5084682  75.7228327  83.0545235  40.4582500
  74.9035025  83.5492992  40.4466057  75.5156708  82.2374344  40.0047398
  76.1156416 105.4467964  31.5808964  76.3058805 105.1951218  30.6771851
  75.1672173 105.5747890  31.5992904  52.0577621  72.3417282  22.9283595
  52.0878744  73.1254196  22.3795867  51.1273909  72.1235609  22.9835200
  20.5973958   5.6916015  91.1754148  21.4830970   5.4760139  91.4674528
  20.2419089   4.8621671  90.8562024  23.3102322 101.8890190   3.6765257
  23.1453872 101.0769176   3.1974190  22.4506402 102.1515656   4.0057814
  49.2721796  91.0177708  18.8775086  48.9072800  91.9023514  18.9020801
  49.5425320  90.8450699  19.7793496  25.1550817  40.4985635  79.3694663
  25.7143354  41.2753885  79.3665827  24.2812204  40.8332937  79.5708490
  93.0404434  60.9023683  85.7702279  92.3234115  61.4125364  85.3936261
  93.5930035  60.6771009  85.0217861  62.6590919  54.7503710  19.0604234
  62.1991253  55.2444506  18.3817863  62.0980978  53.9928913  19.2269957
  67.8039122  41.4819956  30.4448032  68.5097027  41.4127302  31.0876822
  68.2504559  41.6604996  29.6171761  61.6096878  54.2735767  10.2225852
  61.9477415  55.0023460  10.7430184  62.0980024  54.3194866   9.4005907
  12.0083474   8.2387893  58.5239327  12.4668645   8.0565803  57.7036918
  11.9645070   7.3915117  58.9671409  33.3005357  79.4448471  13.1990266
  33.3715343  79.3329191  14.1470051  34.1157103  79.8788929  12.9473817
  71.4226151  75.7418919  40.1935911  71.8632078  76.0592508  39.4053078
  71.4109993  76.4968729  40.7818937  58.7880373  78.2799006   9.5391101
  59.5810270  78.0445147  10.0207651  59.1048956  78.7735176   8.7826866
  50.8858442 105.8247280  22.2268438  51.8163586 105.7905865  22.4486804
  50.8624887 105.7217503  21.2754869   1.9079000  58.5171413   9.8322242
   1.6605613  58.0890179  10.6518376   2.7951252  58.8403463   9.9890739
  32.3247528  81.2713337  29.7817922  32.1546960  81.0445404  30.6960559
  31.4574170  81.3063431  29.3783879  40.8935499  62.6240301   1.1377130
  40.4935169  63.2435322   1.7479770  40.6377172  61.7629814   1.4684242
  76.4033365  80.0993824  31.8701792  76.7369938  79.2089605  31.9799447
  76.7866898  80.3988838  31.0458183  46.7649889  56.8967390  20.8227706
  46.0109854  56.3107109  20.7573628  46.3870621  57.7760220  20.8065248
  28.2119559   6.3623779  87.3256624  28.4767818   6.7786806  88.1459004
  27.8488397   7.0760362  86.8011880  34.9408531  76.8582392  12.1993482
  35.4334569  76.0922050  11.9047916  34.2819858  76.9955587  11.5187073
  62.2970152  64.0511417   0.3890566  62.5065851  63.7149620  -0.4823190
  61.5808582  63.4944248   0.6947012  39.7961903  64.5592690   2.5864530
  39.0463138  64.7222757   2.0143119  40.0273418  65.4222441   2.9300681
  26.3428688  87.3836708  16.5788567  27.1904135  87.3090935  16.1402929
  26.5264153  87.8898621  17.3702550   7.0323396  58.9473343   2.0826359
   6.7127848  59.1001034   2.9718935   7.1605355  59.8239803   1.7202935
  64.5165941  92.1895807  74.4313562  65.3471538  92.3127263  73.9717496
  63.8798043  92.0261591  73.7356389  47.4070072  84.8661709  13.3029735
  46.7981625  85.4002857  13.8131285  46.9959211  84.0024757  13.2672226
   5.2923106  97.7709597  71.2683189   5.5568980  97.7065056  70.3506744
   5.0887869  96.8709009  71.5226925  29.3179034  40.1454561  75.8139778
  30.1360130  39.7704332  75.4879678  29.3899583  41.0805147  75.6223929
  20.2357960  57.0978546  18.5877013  20.6309628  57.3755550  17.7612889
  19.3258047  57.3886299  18.5276937  66.3536978  62.5064516  22.5454974
  66.5734196  61.8413877  23.1979108  66.5774918  62.1025801  21.7070246
  55.4413414  97.0827770  16.7884743  55.1160622  96.5506935  16.0623085
  55.7746220  97.8777790  16.3723826  92.4924752  86.0192578  68.2856262
  92.1160218  85.3216117  68.8221014  93.1385895  85.5762714  67.7355945
  15.5054711  11.8310897  74.3949008  15.9969329  12.3846452  75.0017584
  15.6487083  10.9400480  74.7138965  36.1946534  34.1311948  45.2790439
  36.8800878  34.3574064  44.6503628  36.4346742  34.6044557  46.0756862
   2.9801225  13.0847137  38.6553371   2.9868125  14.0357511  38.5470999
   3.3377551  12.7476470  37.8339231  28.4872531  36.8089502  85.4233432
  28.0564975  36.0989206  85.8992923  29.1715717  37.1154897  86.0183001
  49.8201513  68.8653946   0.3218796  49.8150158  67.9349804   0.0970883
  50.6301689  69.2002678  -0.0627857  80.4157257  86.3920116  17.5254440
  80.9049702  85.8445930  18.1396127  79.7361517  86.8029690  18.0597949
  81.1619660  76.2580579  85.0649900  81.3341996  76.2627953  84.1234243
  81.2957188  77.1658438  85.3375113   2.6284169   2.0087211  79.0519297
   2.1686982   1.5220373  79.7360576   2.9086970   1.3386552  78.4284807
  38.5690022  76.6490030   4.4181308  39.1222095  76.8915081   3.6755779
  37.7809691  76.2800169   4.0192807   9.9770068  35.5617254  76.8379474
  10.0833606  36.1122529  76.0621679  10.6004714  35.9172933  77.4712718
  77.3858833  32.7181482   6.2985224  77.5240374  33.3881235   6.9680578
  78.2219315  32.6664805   5.8352894 102.5147057  73.2436371   8.8706326
 101.8555832  73.2344532   9.5646787 102.6180363  74.1694784   8.6506909
  48.5358000  90.5922318   7.2929680  48.5595322  91.4061451   7.7961671
  49.2700291  90.6660652   6.6833091  18.1587291  79.1988087   1.5339011
  18.5836685  79.6416092   0.7993365  17.2294939  79.1919613   1.3043234
  48.2885075  46.4628267  17.2448635  48.5766029  47.3735571  17.3065805
  47.6105976  46.3800907  17.9155564  62.6757908  67.8657246  22.1169901
  62.6431561  67.7882099  21.1634922  62.6563072  66.9619036  22.4315739
  74.4681931  63.5097837  18.0435085  74.1998625  64.2629004  17.5171638
  74.4943094  62.7811909  17.4232626 109.2470930   2.5113265  82.4303997
 108.4766529   2.6110332  81.8711913 109.1043351   3.1293695  83.1472493
  74.8813248  55.5224705  20.6742692  75.2171898  55.8577633  19.8429990
  73.9474154  55.7316303  20.6570959  45.3259611  53.0076170  23.2379460
  46.1862326  53.2774305  23.5594487  44.9530077  52.4936152  23.9541483
  22.3023795  40.4286497  79.9335063  21.9282912  39.5953195  80.2196217
  22.1394109  40.4531782  78.9906013 108.6642335  27.1937482  91.3761282
 109.5042298  27.5197427  91.0530767 108.0198906  27.8155344  91.0378510
   6.4548825  10.1581161  68.0150187   7.3414706   9.8195045  67.8903711
   6.2197875   9.8923652  68.9040268 100.4374645  42.6603143  79.6780444
  99.6986697  43.0903451  80.1087225 100.2031062  42.6540010  78.7499988
  81.3819314   1.4519023  41.9697523  82.2199441   1.3199138  41.5264177
  81.2486554   2.3996257  41.9528103  56.2853575  69.0032816  54.6977663
  56.5058804  68.7374592  53.8050508  55.5511093  68.4394503  54.9410963
  31.7053365  37.2004907  86.2502683  32.0226525  37.7078550  85.5031884
  32.1700381  37.5662630  87.0029271  28.0479335  27.8673189  70.0580466
  28.0725764  26.9522016  69.7784031  28.5581922  28.3338659  69.3960822
 100.1457713  30.1123159  90.9058082 100.6675265  30.8826940  91.1306076
  99.7195480  30.3441637  90.0806949  37.3895383  67.9734325  24.4460297
  37.6663733  67.8075695  25.3471875  37.4071026  68.9267492  24.3616939
  61.4067030  60.4305696  12.6819563  61.8103790  60.5767488  13.5374749
  61.0673189  59.5366812  12.7268505  93.7028608  38.3719747  83.7378127
  93.1554422  38.3883874  82.9527682  93.9315138  37.4494188  83.8511157
  69.4617081  70.1462793  11.5132058  69.0886545  70.2892447  10.6433630
  70.3631258  70.4602528  11.4417827  53.0564451  78.1136274  16.1569357
  52.8428841  78.9710569  16.5249527  53.7791204  78.2853651  15.5532134
  37.4941278  86.8922424  23.7897992  37.5344658  85.9766865  23.5134625
  38.1620502  87.3310757  23.2629871 110.5795765  87.1918201   9.5529234
 110.2426720  86.4431381   9.0607852 109.7991657  87.6913071   9.7931576
  54.7820616  31.7490411  32.7543974  54.0506887  32.1235132  32.2633862
  54.5454311  30.8290577  32.8721523  37.7697277  74.9356413  14.4166982
  38.0215406  74.9076080  13.4936404  36.9601226  74.4267941  14.4596601
  75.4986974 104.9224442  86.2016046  76.3467905 105.1516407  86.5816564
  75.1868412 104.1914576  86.7351193  57.9755020  63.7545776   0.9144107
  57.4831343  63.6987829   0.0954516  58.5910130  63.0226278   0.8741677
  25.5502987  69.9859047  22.0996499  25.8686590  70.8069277  21.7244101
  24.8580074  70.2517271  22.7048802  83.3835480  32.4029748  85.6445027
  83.5057304  33.3422677  85.7824737  84.2404190  32.0900266  85.3545624
  37.9179120  44.6796751  28.3888078  38.7163377  45.0174236  27.9830050
  37.2109604  44.9968338  27.8267908 112.2601483  68.0452936  84.2481697
 112.4755571  68.1998842  85.1679147 112.7440879  67.2518938  84.0189213
  41.2547493  46.0768509  33.4614468  42.0564747  45.6786346  33.8004112
  40.6630135  45.3384304  33.3171797  82.4740028  61.0714579  17.1561241
  82.1416664  60.5705309  17.9010105  83.2409573  60.5808687  16.8606079
  58.7196541  51.7832327   7.3458135  58.0922318  51.0895586   7.5492620
  58.5868597  52.4355698   8.0336004  23.4186267  22.2157257  86.1384464
  24.3532466  22.4202650  86.1086953  22.9872607  23.0698030  86.1650032
  13.4479427   8.8831918  72.6973498  13.7237214   9.7334449  72.3549426
  14.2566680   8.3743637  72.7547539  69.6436977  42.9606009   3.2588047
  70.3597498  42.3284435   3.1965461  69.5102310  43.2606316   2.3596942
  68.7524652  58.2734203   7.9061139  68.1902695  57.6961851   8.4228039
  69.2212629  58.7962532   8.5565823  22.8728723   0.6040256  71.5825641
  22.9174899   0.5281036  72.5357032  23.4528112   1.3361995  71.3732088
  64.7514984  92.9583090  55.4064071  64.5147988  92.1982067  55.9378684
  64.3453595  93.7000053  55.8549249  47.0519161  59.3161011  11.5653765
  47.0781755  58.8887119  12.4214613  46.7893887  58.6230183  10.9596145
  85.2483177 102.2285366  15.8496547  84.3344688 102.2273636  16.1344409
  85.3609943 103.0710983  15.4096329  79.9822852  94.5562809  83.8415897
  79.8611209  93.8012951  84.4173915  80.3509471  95.2334183  84.4088650
 104.1760445  90.2725601  29.4359970 104.9211884  89.7163868  29.2087078
 103.4830856  90.0026608  28.8333344  47.8338765  26.6166418  91.1104644
  47.5119542  25.7186000  91.1886494  47.8783464  26.7738836  90.1673147
  83.3393192  94.6591663  13.4962940  83.5149765  94.7136497  14.4356596
  83.9794159  94.0270996  13.1691957  76.3495016  41.2559700   9.9843174
  76.4808321  40.7758379  10.8019090  77.0546579  40.9526348   9.4125032
  56.0216522  60.3190327  26.2918973  55.4445887  60.8642864  25.7571745
  56.7284775  60.9072495  26.5576530  21.9008636  50.7752721  67.3390591
  21.8985414  51.6359346  66.9201577  22.2468328  50.9370248  68.2167685
  48.5413170  48.1176376  28.0828619  48.1503725  48.6432552  28.7808061
  49.4104910  48.4976721  27.9550362 105.9240056   7.1888351  37.3692036
 105.5040933   6.4354133  36.9541550 105.6906415   7.9306411  36.8110895
  47.9899120  72.2304869  40.0839710  47.4290371  71.5006113  40.3465319
  47.5303555  72.6325655  39.3468332  76.3319565  20.7420062  17.8487217
  76.7785955  19.9165248  18.0366695  75.8903695  20.9672450  18.6675620
  51.7714166  45.1118009  80.1893938  51.8547773  45.1365488  81.1426354
  52.6628446  44.9613397  79.8748339  99.5523093  56.2728708  71.9729793
 100.1228044  55.9491556  72.6701010  99.5010827  55.5483072  71.3495839
  85.0308514  81.5989494   0.5990584  85.5542278  81.4099503   1.3778980
  85.4662514  81.1178398  -0.1046400  10.3212821  44.8970985  19.3445635
   9.5638669  45.4027987  19.6392214  11.0599995  45.2696943  19.8259151
  48.7007046  46.1834764   1.1457507  48.5486984  46.4755726   2.0445311
  47.8239155  46.0483170   0.7863083  21.1932420  16.1111801  83.4738362
  21.6590690  15.4211776  83.0014652  21.8860816  16.6441696  83.8638616
  97.7476761   2.1265762  80.6739617  98.5883877   1.7458503  80.9278953
  97.7867744   3.0280845  80.9933150  76.9844151   0.7096099   3.8312158
  77.0704771   0.0118923   3.1815934  77.0382620   1.5185832   3.3223945
 102.2747084  84.8018783  91.8780665 101.5781781  84.1893428  91.6416823
 102.4592015  84.6114295  92.7978082  79.3535089   3.2994049  84.4230789
  78.4965467   3.7029569  84.2852593  79.2790841   2.4350994  84.0185172
  57.2414872  98.2981413  76.2080181  57.0945784  98.3301085  77.1533370
  56.4223537  98.6150663  75.8274794  10.9123147  72.9838753  16.9199061
  11.1524141  73.0746746  15.9977674  10.8592391  73.8832378  17.2432601
  42.7113962  62.7263689  16.3555920  42.7372980  63.6802053  16.2797058
  43.6304045  62.4594498  16.3354135  36.1380243  67.2584581   7.1072000
  36.6201258  66.7008114   6.4965945  36.2696409  68.1466293   6.7754447
  75.4581836  65.9390752  46.3499439  74.6295156  66.4180772  46.3401020
  75.2025714  65.0198190  46.4265955  23.7327003  66.6752863   8.7646717
  23.5778141  66.3327265   7.8843904  24.6821618  66.7858219   8.8150370
  24.7484279  56.5094662  10.2497566  25.4696846  56.7352200  10.8371723
  23.9702559  56.8666077  10.6776905 101.2146328  29.8052232  86.4687312
 101.4867208  29.3283098  85.6846732 100.4856226  30.3519075  86.1756170
  11.6787194  37.3297231  77.8708279  12.2103404  37.9373281  77.3566032
  11.4928054  37.8019350  78.6824227  15.2476596  19.3371170  68.8582647
  15.0286769  19.7429912  69.6970404  15.8658837  19.9447553  68.4523094
   5.8438872 100.0899571  76.1645305   5.9756850  99.1542261  76.3170731
   5.2617262 100.1292723  75.4057300  77.7568742 101.5627926  84.1093159
  77.6734015 102.5005262  83.9363301  78.6946818 101.3874834  84.0317619
  39.3487787  54.0563107  15.8242285  39.1547918  54.9037790  15.4237318
  38.6150622  53.8986254  16.4183891  97.9307411  31.5598505  75.8608938
  97.6987884  32.4620740  75.6408382  97.9529140  31.1059682  75.0184381
   5.6657743  31.1651151  62.6583684   6.1949872  30.9221380  63.4180582
   4.8220061  30.7386129  62.8079617  75.6452376  67.2186773  84.7404105
  74.8355708  67.7243249  84.8110617  75.8048321  66.8968599  85.6276501
  81.4029929 104.3237751  62.5200451  80.4949424 104.0315312  62.4408567
  81.5383622 104.8929279  61.7624343  77.7684116  57.1124172  14.9745715
  78.5257912  57.0957804  15.5596578  78.1290531  57.3590422  14.1228998
  42.9506445  58.7168264  18.4476089  42.4559069  59.5361757  18.4594655
  43.8579321  58.9869070  18.3057868  81.0875651 101.1904352  68.4313286
  81.2731883 102.0484894  68.0498565  80.7086512 100.6853788  67.7119029
  26.3453746  80.1541328  16.8499351  26.0713887  79.2875767  17.1503484
  26.0790753  80.1843357  15.9310210  67.8702497  55.8051062  26.9823670
  68.4812975  56.5411329  26.9488406  67.0040226  56.2122107  26.9702268
 105.6895158  36.4122789  81.7952109 106.2844465  36.8376367  81.1776698
 106.0807321  35.5527322  81.9513023  27.7636623  51.9946306  87.4334061
  28.3706092  52.6844709  87.1651250  27.6618814  51.4486520  86.6538048
  22.8093576   8.6903207  65.4919589  22.6115894   7.8902833  65.9788502
  22.7540301   8.4308403  64.5722616  35.9470010  73.7926531  28.6624336
  36.2656617  73.1826019  27.9972100  34.9938011  73.7156343  28.6210918
  22.6766253  76.7234802  12.7358150  22.8622365  76.2534428  11.9228899
  21.7210221  76.7514372  12.7834821  45.8718157  80.4752636  15.5797267
  46.7574883  80.8286667  15.4964781  45.9638309  79.5461988  15.3685522
  50.1774931  42.3184490   9.0841067  49.3289566  42.4650812   8.6661190
  50.0472355  42.5906229   9.9925035  27.8503060  38.3976722   9.6024138
  27.8920078  39.0025687   8.8617432  26.9885063  37.9876900   9.5285946
  81.0956570  97.6599567  87.7427671  80.3421447  97.9668921  87.2385443
  81.3598391  96.8487042  87.3088181  83.9824009  42.7903938  29.9096513
  83.8710880  41.8397474  29.8990107  83.1454945  43.1330633  29.5959687
  80.7952592  95.8295124  78.3020592  80.0013348  95.5955618  77.8212428
  81.0110852  95.0440138  78.8046980  80.4362202  81.5203094   8.4774321
  79.4909954  81.4498234   8.6108756  80.5392742  81.5948582   7.5287199
  62.0589638  70.4715061   1.4714897  61.2438965  69.9770641   1.5576909
  61.9047403  71.0606670   0.7330213  27.7394605  61.5286446  15.8331466
  26.9578910  61.9972992  16.1259699  27.4214792  60.9331894  15.1545060
  32.6237631  75.4358006   8.2731926  31.9475579  74.9008846   7.8574514
  33.4130359  74.8955250   8.2360429  42.3520707  21.0308712  90.6563199
  43.2023954  20.9567993  91.0895527  41.7794322  21.4195888  91.3175424
  36.5997458  83.9779186  17.8417325  35.9140277  84.6435165  17.8964901
  36.3687587  83.3399582  18.5169268  43.0407238  76.8883228   6.7902368
  42.5979805  76.2435102   7.3419809  42.4568748  77.0032072   6.0404688
   8.1930160   9.4683378  88.2973415   7.4378776   9.8779647  87.8752068
   8.9213704  10.0614469  88.1130556  69.8051020  98.2931202  80.0182808
  69.2354867  99.0620535  79.9956847  69.9689481  98.1437033  80.9494412
  29.0280199  46.2792969   9.6083772  29.3493986  45.9089947  10.4304636
  29.5753098  47.0510626   9.4631809  67.4419498  62.1266317  20.2776432
  67.7036095  61.2319469  20.4951453  68.2667255  62.6077080  20.2102375
  43.3028841  69.1880989  30.3148770  43.4279394  70.1213264  30.4871464
  42.9404736  68.8405657  31.1298060 106.4601252   0.3442161  60.3331721
 105.9188697   1.0828702  60.6118453 106.1427186   0.1324480  59.4553101
  62.6814938  56.0998869   8.1560200  62.8043604  55.2737999   7.6883519
  63.5688829  56.4307833   8.2948792   7.7892207  20.7506959  89.7836000
   8.6137342  20.6422584  90.2575791   7.4372243  19.8636739  89.7092927
   6.1980723  88.0383556  78.5867656   5.3392027  88.3024757  78.2568932
   6.6426943  87.6654213  77.8255391  35.1308012  91.5318298   8.7924773
  34.4951224  90.9177971   9.1600502  34.6367502  92.0242977   8.1370175
  42.2010136  32.5497651   9.3083060  42.4104404  32.6701570   8.3820885
  41.9233370  31.6361046   9.3742853  83.7771889  89.5863669  81.7727363
  83.8949677  90.1432269  81.0031486  83.7200019  88.6985725  81.4194918
  14.4318961  18.8646142  84.4594342  14.2834376  19.7987859  84.3127531
  13.6981773  18.4337537  84.0209741  13.7982225  28.3773439  78.3709014
  13.5263490  28.0869596  79.2415297  14.7134017  28.6359327  78.4796048
  88.9404011  85.1996040   4.6304235  88.8112831  86.0523891   4.2153108
  89.1151714  84.6029472   3.9026210  97.5772143   0.7751274  11.4466882
  98.5090018   0.9748649  11.5367687  97.4748374   0.5182075  10.5303121
  29.2605448  98.9304256   5.3119808  29.7980237  98.1525612   5.1626992
  29.8137426  99.5060635   5.8400369  55.9758568  33.3371615  17.1044195
  56.7719603  33.7699413  17.4128926  55.4859734  34.0272999  16.6572595
  57.7617884  54.6310711  21.7674351  58.1108332  55.2079773  22.4468303
  58.4055710  54.6766424  21.0605407  57.6451015  88.1629753   0.7784279
  57.6900434  87.3359585   0.2985850  57.0017910  88.6840343   0.2979154
   8.2958125  26.9574754  91.7912982   9.2142104  26.8124025  92.0187466
   8.0564260  27.7570550  92.2599177  75.4307887  91.5446895  58.5733784
  74.9043485  90.7980221  58.8590014  76.1414072  91.1556833  58.0635465
  53.3557367  73.7731075  18.7688851  52.4278927  73.6946630  18.5471094
  53.7974834  73.1750536  18.1660390  64.0402555  83.0269623  17.0513821
  64.2873859  82.1416664  17.3186076  63.0948639  83.0657291  17.1961677
  55.1953840  84.1672325  13.4593904  56.1031485  84.0571117  13.7423444
  54.7797060  83.3277130  13.6559856   7.0520877  34.7440832  69.9923814
   7.8711509  34.6933954  70.4851306   6.3679122  34.6398180  70.6536424
  49.8553562  73.7317991   0.8940716  49.1881800  73.1597614   0.5147538
  50.5681849  73.1406355   1.1362114  35.5503082  26.3745618  19.6636629
  35.6996870  27.2810411  19.9323845  34.9106288  26.4373279  18.9543653
  45.6597328  69.6208620   7.5162876  45.6078768  70.5737638   7.5905824
  46.2505245  69.4699478   6.7784357  40.3642130  86.5988636  13.9722693
  40.3689814  87.0565128  14.8129630  39.6935678  87.0487976  13.4584379
 102.1228743   7.6831722  22.1236968 102.0171071   8.2599353  21.3671303
 103.0250073   7.3693275  22.0613480  45.3789806  72.6373339  16.4389503
  44.9538755  71.7862654  16.3331211  46.2668467  72.4272346  16.7284012
  34.5560884   5.4098194  89.3589032  34.2477035   6.0186403  90.0300747
  34.7885179   5.9685676  88.6172778  83.6548424  93.8079834  21.0646725
  84.0402603  93.8249969  20.1886630  84.4065475  93.8143921  21.6572380
  31.3980388  57.5476472  83.4614456  30.9643268  58.3446996  83.1567759
  30.7898664  56.8433397  83.2371539  91.7342949  82.9782772  22.7644134
  91.6927052  83.8740826  23.0991268  92.6145554  82.6784420  22.9912734
 112.3020980 104.2669838  91.1899460 112.6901528 104.5691650  90.3687707
 112.9174802 104.5527905  91.8651130  62.6377107  12.5087833  14.4774377
  62.2791816  12.9196548  15.2641261  61.9758058  12.6635551  13.8035226
 104.7461221  63.7757127  47.6179016 103.8360498  63.8464849  47.3298157
 105.0667641  64.6776025  47.6223266  29.1959097  10.7583331  13.9438868
  29.7363570   9.9711227  14.0106487  29.8000338  11.4391899  13.6477351
  84.5372009  78.3729458  22.4914360  84.5031452  78.8556194  23.3173275
  84.0234947  77.5819874  22.6549196  91.9450283  32.7174211  13.5800827
  91.2820625  32.9018927  14.2454219  92.7345657  33.1527638  13.9015317
  99.2706845  43.1067579  85.1058805  99.5783470  42.3309534  84.6371532
  99.5290754  42.9554479  86.0150397 108.7582779  94.9001884   6.7746109
 109.3987846  95.1286316   6.1009669 109.0011024  94.0148354   7.0455796
  81.3901234  70.1914787  26.0535789  80.8239079  69.7176552  26.6627741
  81.4222527  69.6357632  25.2748775  42.7632904  64.0604448  11.9084704
  43.3418941  63.8057184  12.6271904  43.0806160  64.9225521  11.6395688
  33.4587312 100.6353951  26.1465526  32.5160813 100.5566406  26.0001230
  33.5376477 101.2579060  26.8693852  34.8284221  72.3362923  43.1589270
  34.1799378  72.0540428  43.8039351  34.7737312  71.6821527  42.4622631
  64.9091768  89.5646095  11.4157581  64.5516729  89.9016571  10.5942845
  64.5480728  88.6812115  11.4895391  37.0602775  92.4766350  14.1683578
  36.5086436  92.7693462  14.8937905  37.5313759  91.7194176  14.5160949
  40.6314086  36.4275091  65.7872022  39.8485278  36.9455545  65.9741748
  40.3876399  35.8880537  65.0350082  27.1015166  15.5179946  79.5093239
  27.5628804  15.3311841  78.6917186  26.6355848  14.7068231  79.7121525
  53.6593008  94.4407082  22.6504660  54.5697689  94.1494465  22.6999164
  53.2942247  93.9604378  21.9072986  91.9285107   1.9987010  31.3509750
  91.0946179   1.8691730  30.8992267  91.9943715   1.2551116  31.9501138
 103.0645129 100.7737701  68.4189236 103.3482644 101.2099760  69.2223180
 102.1092793 100.8314531  68.4396184  61.1810255  83.8285446   0.6403384
  62.0606804  84.1936493   0.7359324  60.6624985  84.2745876   1.3099715
  94.8098204  13.2188385  87.4308151  95.2634523  14.0084474  87.7257279
  95.3159151  12.4978511  87.8053505  60.3290510  89.2436314   1.6758753
  59.4730425  89.2875481   1.2497823  60.1489496  88.8660812   2.5368315
  54.7912168  32.4049489  73.8398934  53.9732980  32.2681444  74.3179381
  55.4581975  31.9814603  74.3802965  47.4556493  42.1513193  77.8615034
  47.6983594  42.7619474  77.1654678  47.4564408  42.6829164  78.6575187
  42.3242903  64.0616894  21.9856453  42.3329306  64.3617439  22.8945589
  41.4211416  64.1950846  21.6979599 111.7588518  28.2389562  64.1046846
 111.1105344  28.2986276  64.8063648 112.2273300  29.0729349  64.1398847
   6.1792993  34.6622865  81.7658210   5.8908891  33.8585012  82.1982360
   7.1325254  34.6520154  81.8523193  75.2411318  72.8515100   8.1975174
  74.5443678  73.5007763   8.1015462  75.2794409  72.4138117   7.3471153
  37.8820777  79.4716406   3.7106317  37.1411586  79.5568132   3.1106204
  37.6467419  78.7384892   4.2792583 101.1438514   6.2515640   4.9563497
 101.7291022   6.1901473   5.7112944 101.5343619   5.6714439   4.3027455
  58.5942575  84.7292870  75.6918764  59.0571400  84.8741668  74.8666609
  58.8786480  83.8608378  75.9767461  56.0293055  73.7675762  20.9549165
  55.3736639  74.3343973  20.5486107  56.5322876  73.4177399  20.2194905
  41.2707520  79.7138023   9.4761819  42.1663380  79.5380974   9.7647798
  41.0872984  80.5992317   9.7901696  89.1005898  78.7947512   9.7919255
  88.9823341  77.8836918   9.5231915  88.9709949  79.2999649   8.9893073
  60.0594282  93.4206104  25.0051737  60.8049011  94.0194416  24.9615788
  59.9969959  93.0513573  24.1242743  16.4233302  26.8368642  57.7583063
  15.7873344  27.1870821  57.1345342  17.1877383  26.6198652  57.2246182
  75.9187651  71.8210363  13.3001435  75.5006647  72.6584101  13.0995727
  76.4855003  71.6500473  12.5479424  25.4016399  26.5671842  88.6539740
  24.7261047  25.9070890  88.4985349  24.9602985  27.2459047  89.1646469
  92.9042006  18.4302234  20.4669213  92.8780557  18.0790805  19.5768404
  93.3998490  19.2453288  20.3883719  53.0486155 101.7280674  15.7056141
  53.9817905 101.9388771  15.7368290  52.8192616 101.7930794  14.7785759
  23.2833385  85.7337475  37.3746824  23.5848904  85.5064487  36.4951158
  22.3515129  85.5148220  37.3724389  92.1943972  20.7808464  76.5864265
  91.8565867  19.9199026  76.8331838  91.4549182  21.2155359  76.1616350
  24.3933295  71.8707960  84.1809923  25.2971839  72.0102136  83.8984335
  23.8709401  72.4104803  83.5876334  76.2196970  69.2434788  28.8132668
  75.8791542  70.0697231  29.1561651  77.1517611  69.4089937  28.6715078
  13.3746099   7.5878065  86.5200734  12.5970172   7.9784601  86.9187868
  13.2370090   6.6440456  86.6014082  43.4238005  70.4115725  18.3258390
  43.0444336  69.7214460  17.7817464  44.1903114  70.0042915  18.7293446
  97.7086830  67.7634668  18.4863305  98.4080505  68.3115959  18.1304133
  98.0549526  66.8723774  18.4385467   2.3186206  33.0498712  72.7824247
   2.8132819  32.3430650  72.3677385   2.5446843  33.8297861  72.2756160
  45.8161736  63.9539957   7.1880442  46.5670872  64.5284224   7.3377049
  46.1753416  63.2121944   6.7012578  21.2990093  51.4680195  28.8115597
  20.4561377  51.1976004  29.1757989  21.3948679  50.9449911  28.0156446
  87.1658230  64.6035242  31.3465595  87.7009583  63.8099146  31.3529754
  86.8648815  64.6821594  30.4413080  49.5559025  83.6062527   4.1372249
  49.5052290  82.6504135   4.1303402  49.9754143  83.8298512   3.3064157
  50.8322334  70.4086542  56.2996197  50.2143812  70.9061480  55.7638979
  51.6302872  70.9371758  56.2979698  62.3735332  49.6474314  36.7363572
  63.3058453  49.4330263  36.7689109  61.9376230  48.8762903  37.0990682
  89.8967696   8.0282878  75.4880095  90.4213763   8.4638309  74.8162031
  90.5273772   7.7910900  76.1679363  33.1530309  62.5849295  11.0870457
  33.4335399  63.4563112  11.3667619  33.9383531  62.1909571  10.7071924
  55.6459045  80.3872013   9.1195625  55.9239578  81.2503147   9.4260865
  54.7718477  80.5318546   8.7571746  63.4884596  75.0180435  28.4145880
  62.9614735  75.7872200  28.1980658  63.8455915  75.2088213  29.2819381
  68.1454563  88.7513828   3.6350340  67.6848841  87.9131222   3.5972449
  68.7003231  88.6849785   4.4121712  91.7989540  69.4626188  11.0990047
  91.2022400  70.2109766  11.1103594  91.3639450  68.8012409  11.6371298
  92.7541065  94.4878578  20.2970672  93.5378170  94.2182636  20.7759762
  93.0031395  95.3091335  19.8731458  85.3897858  71.5511084  46.5858269
  85.9605312  71.2559128  47.2952938  85.2565765  72.4832773  46.7577028
  24.3043803   7.8148096  84.2538274  24.5394611   6.9980400  84.6941126
  24.4845151   7.6485698  83.3285451  53.5275602  70.1018095  20.4501486
  54.2864037  70.6026077  20.7494664  52.7924967  70.4607391  20.9472275
  89.0364552 105.9219646  35.6871772  89.6402264 105.5409431  35.0495887
  89.3420124 106.8222809  35.7980752 112.1337125  61.5961092  71.9471944
 112.2285078  61.9478624  72.8323579 112.9707096  61.1672704  71.7689669
  45.8515882  78.4129381  29.8508668  46.3708687  78.6174679  29.0732121
  46.4472055  77.9176283  30.4131293  58.6872816  53.3903790   9.5653266
  59.5605516  53.6283064   9.8768020  58.2326603  54.2267370   9.4650102
  84.9114513  94.7731686  18.9182723  84.4089222  94.9906540  18.1331599
  85.4228115  95.5613613  19.1013145  51.6087579  44.7498910  62.6773990
  51.7417287  44.1140287  63.3804143  51.0756635  44.2855089  62.0321071
  41.9275570  73.0760765  14.2923975  41.8075705  73.9632654  14.6311212
  42.6929188  73.1393147  13.7210357 109.8754883  99.7190666   8.3894145
 110.7984161  99.8775101   8.1910700 109.8139858  98.7704182   8.5013002
  54.8748255  93.9215565  53.7125349  55.4752541  94.4763470  54.2104483
  54.6212339  94.4573021  52.9609394  38.7072611  18.1415677  54.1078281
  38.1774831  18.5162961  53.4041643  38.2699633  18.4215236  54.9119568
  40.7274628   2.9461327  15.3173101  40.6132412   2.5040916  14.4760096
  39.9463916   2.7122349  15.8187592  53.9212370  29.2014265  33.1380773
  53.6822844  28.2778144  33.2160211  53.3091831  29.5534563  32.4917817
  45.5888775  83.1597822  69.3869293  46.0355380  82.5693505  69.9936545
  44.7670713  83.3780735  69.8264921  46.4117479  21.7823331  89.1272283
  45.6152867  22.2964017  88.9945007  47.1233033  22.3785179  88.8938174
 104.3098927  47.3835707  12.0633721 104.2800999  48.1399345  11.4774907
 103.3943176  47.1239424  12.1660650  82.5108239  98.7731999  80.9555066
  82.6941916  98.6967772  80.0191474  81.5571830  98.8364428  81.0084379
  32.2672105  45.3283262   9.8219937  32.5882220  44.5472527   9.3713182
  32.7095222  46.0559225   9.3847394  99.1558453  77.3566788  63.3460772
  98.2790992  76.9958180  63.4776986  99.7408435  76.7210692  63.7583936
  75.5574560  24.7118497  22.6320219  76.4994192  24.7707415  22.7916145
  75.4850817  24.4961119  21.7022634 108.3171031  83.7436336  61.1581958
 109.1794249  84.1522163  61.2336457 107.8326174  84.3150538  60.5623877
  64.5648146   1.3407490  32.1821308  64.5235348   2.2602569  32.4448729
  63.9422560   0.8985506  32.7592921  19.5273542  10.9036415  83.1394375
  18.7246322  10.4672544  82.8540570  20.2115869  10.2437417  83.0272407
  74.2693329  42.2312689  31.3730574  74.4438267  43.1020546  31.0159659
  74.9591398  42.0962048  32.0227909  84.3494606  57.9310989   1.6944593
  83.7197781  57.6362038   2.3523167  84.8991680  57.1651983   1.5287910
  54.3163153 103.9230269  86.2842089  53.9103183 103.1740683  85.8477891
  55.2417764 103.6880940  86.3517565 102.0464226  94.1728895  80.9231437
 102.2618672  95.0502318  81.2395013 101.2115618  93.9652603  81.3428212
  95.7954308 104.2458361  86.9935441  95.1492640 103.6013144  86.7049432
  95.5522868 105.0503986  86.5355206  63.5416746  45.9862137   9.3369240
  64.0338802  46.1361170  10.1440740  62.6855516  46.3814116   9.5015633
  70.3142139  91.2037938  87.7333048  70.5456444  91.4274090  86.8318242
  71.1553356  91.1140030  88.1812829 110.7441422  87.6961248  86.1308027
 110.8879945  87.1237224  85.3772164 111.0422990  87.1829122  86.8817669
  56.7450905  20.7667518   7.7770174  57.5971031  20.3363919   7.8484273
  56.2444544  20.4317665   8.5209131  62.5867748  49.2208481   1.5589403
  62.9886580  50.0499582   1.8183613  61.7735004  49.4750071   1.1228003
   0.3846072  33.5043447  89.0875167   1.2174558  33.1756704  88.7490318
  -0.2568055  32.8423803  88.8293809  51.8921614  19.2425752  16.6033041
  52.4227762  19.8571301  16.0963535  51.2144661  18.9514053  15.9932351
  49.3615102   9.7450702  53.1181825  48.4199857   9.7608201  52.9464186
  49.7331666   9.2739122  52.3724497 112.1888349  20.2311294  85.5811978
 111.8939064  20.0109832  86.4648176 112.1451709  19.4041698  85.1011372
  26.3915157  79.8736572  20.0672174  26.4045119  79.6940517  19.1271091
  26.5183640  80.8201981  20.1320004  65.9364459 105.9994143  81.1237800
  65.0062415 106.1360996  81.3034046  65.9547517 105.2880877  80.4835356
  86.7023182  70.5329132  36.9036794  86.4889717  71.1947966  36.2459373
  86.0577393  69.8393297  36.7633581  67.3849079  69.6166008  80.2480901
  67.1206161  68.7005716  80.3333724  67.7922532  69.6688550  79.3834687
  79.0765473 102.1628063  74.9359739  78.3728739 102.2275274  74.2903042
  79.0746876 101.2429922  75.2008713  84.3556306 102.7729529  82.3917687
  84.0884492 102.0765513  82.9916638  84.0853020 102.4617069  81.5278912
  66.7507407  83.2166784  84.5371485  67.4451110  82.8931635  85.1111013
  65.9472582  82.8430622  84.8991698 110.4697440   1.4746778  59.3590796
 110.1025341   0.6424539  59.6570576 110.3713033   2.0619314  60.1085246
  46.1945200  78.6997509   9.3862444  45.8918285  77.8553343   9.7202611
  45.5916500  78.9046478   8.6715406  66.1670637  23.6861682  12.2447038
  65.9868956  24.6256566  12.2784173  66.6317463  23.5019612  13.0610168
 106.8597981  96.8909996  77.1884549 106.9296214  97.7127331  77.6743675
 106.7187163  97.1606415  76.2809182  70.7223320  46.2335920  14.7083342
  70.4875326  46.6531897  15.5360031  70.7399750  45.2981663  14.9105692
   8.3369826  12.4704425  82.4538935   9.1161107  12.9428737  82.1606350
   7.6170777  12.8687685  81.9647110   7.7139090 103.6473339  68.6726058
   8.4459303 103.9155596  69.2279661   8.1199930 103.1410425  67.9690492
  94.6104190  93.6012476  78.9161587  95.3762528  94.1063803  78.6430741
  94.0502640  93.5772198  78.1403506  88.3577487  97.2228211  85.0261951
  88.0891940  97.3935145  85.9289533  88.0978152  98.0091446  84.5462346
   5.4469775  83.8923424  86.6086006   5.5615233  84.4546359  85.8424825
   5.6126021  83.0075186  86.2831951  11.8501424   5.1983564  86.6517169
  11.9107436   5.4023378  85.7184697  11.5454005   4.2913787  86.6793478
  43.3079290  44.2228889   9.0477991  42.8353930  45.0438166   9.1856974
  43.0767107  43.9601803   8.1568712  62.5445604  43.3823490   8.4238541
  62.6435900  44.1604567   8.9724660  63.3589268  42.8953218   8.5497224
 112.9297135  19.8128431  61.3981498 112.6754305  20.7308261  61.3039410
 112.9844353  19.6753089  62.3438371  54.8087548   9.9259393  92.6392555
  55.6176137   9.9505203  92.1280071  54.2909764  10.6577461  92.3036900
  81.2873173  66.9582605  15.4222476  80.4332256  67.2686338  15.7229686
  81.9158077  67.5541639  15.8298385  68.0314705 104.7338360  52.6969064
  67.9878399 104.0844744  53.3988011  67.4673173 104.3810289  52.0087993
  36.0026121  74.5507145  11.0127842  35.8716917  73.7113714  11.4539158
  36.8616962  74.8475885  11.3129044  31.7479610  56.7698574   6.3458180
  30.8844113  56.4110661   6.1414152  32.3574042  56.2268305   5.8458865
  69.2127466  39.5048356  20.5185580  69.1169167  39.5477462  21.4699817
  68.9738941  40.3803110  20.2140474  22.5069331   2.5214641  88.6353743
  22.0611667   3.3458917  88.4408334  22.8225278   2.6258342  89.5330039
  93.1306216  54.0371016  85.2823800  93.4969184  54.7506713  84.7600025
  92.2290084  54.3067377  85.4573649  35.9749078   3.0117385  57.3810089
  35.9010648   2.1203916  57.0400083  36.7276525   3.3827226  56.9205964
  90.0793839  62.6604414  24.0710449  90.5431938  63.3461380  23.5904884
  89.2823982  62.5091028  23.5629678  55.1885653  42.0248079  35.0523400
  55.4263973  41.8626451  34.1394496  54.2370367  42.1277332  35.0372934
  54.3107700  28.3069277  28.7380266  54.2075682  29.2450666  28.5784078
  54.6830606  28.2532620  29.6182251  24.9299573  53.8608949  88.6928332
  24.1797303  54.0880792  89.2421782  25.3980302  53.1913202  89.1916433
  86.3010502  37.4168253  34.3166280  86.4177227  38.0537820  35.0215411
  86.9380474  37.6767373  33.6511087  83.2623812  87.4485701  80.0814772
  83.8172957  86.6748159  80.1794839  82.4065158  87.1726101  80.4094625
  78.7069365  97.9858702  64.6003378  78.8584563  97.2436636  64.0151823
  78.2753226  97.6040667  65.3646458  28.1617785   6.5301687  23.0286479
  27.3253059   6.9428307  23.2437158  28.7971950   7.2452712  23.0619073
  44.1723776  44.3327999  31.4231181  43.4675455  44.9418020  31.2027454
  44.9520922  44.7119856  31.0175371   3.3892630  89.8541897  55.7955826
   2.8442524  90.0940960  55.0461543   3.1542443  88.9450830  55.9813845
  71.6497755  70.5764103   2.3543413  72.1387625  71.0119390   3.0525103
  72.3159552  70.1071548   1.8521141 109.8712680   9.6049278  76.2165892
 110.6260560   9.3481605  75.6868768 110.0828860  10.4865139  76.5235985
  29.5316768  31.8387818  21.2723756  30.2739835  31.8721461  20.6689692
  29.5184708  32.7029228  21.6838574  79.0060517  98.8987558  86.6052777
  78.4348008  99.4118183  87.1768248  78.4159323  98.2903689  86.1604697
 108.4537598  58.6361098  80.1090050 108.1374690  58.3407693  79.2552102
 109.4039389  58.6903339  80.0067699   5.6321382   5.9751861  62.8320873
   5.3689956   5.0926607  63.0931151   5.0297307   6.2053649  62.1247280
  92.4746653  83.8720291  70.3952802  92.3852536  83.0046933  70.7902062
  93.1476018  83.7611645  69.7236383  36.6627288  50.9956837  36.1701894
  36.5926957  50.2941799  36.8176556  36.1267185  51.7044258  36.5260148
  28.5190078 105.6659668  58.6252940  29.2951265 106.2028187  58.7854898
  28.0030092 106.1721390  57.9977858  46.1187220  27.7500463   8.8813269
  45.6639385  28.4916425   9.2806250  46.0724783  27.0575905   9.5405662
  58.1778002  80.2238941  13.3852983  57.3327065  80.1342678  12.9448247
  58.6482954  80.8789730  12.8698063  61.3338375  75.7690716  14.5347393
  60.6801367  75.7211256  13.8371658  61.5022659  74.8562098  14.7683001
  18.0523419  76.3563204  16.4812493  18.5388350  75.8441448  15.8353126
  18.5416520  77.1756887  16.5550148  29.6435450  76.0807770  37.1720493
  28.7541292  75.9804457  36.8327749  29.9489210  76.9091671  36.8022573
  53.0343580  41.0308743  20.3468585  53.6790991  40.8225536  19.6707368
  53.5243607  41.5319681  20.9988093  18.4216737  18.1046407  76.3737154
  18.2210778  18.0782812  75.4381407  18.4215116  17.1865861  76.6446638
  14.2709540 106.6777008  83.0270040  13.7172221 106.4322393  82.2858167
  15.1405714 106.7999571  82.6461470  74.2519399 106.1425942  71.8567360
  73.8726041 106.2143343  72.7326298  74.7273394 105.3118818  71.8689239
  22.8074359  10.8742588  63.6894071  22.8795480  10.3990715  64.5171893
  23.5992669  11.4107196  63.6514223 104.0412188  10.7211971   4.3522477
 104.9975682  10.6953334   4.3831789 103.8341618  10.8175086   3.4226859
  90.1110172  43.3363867  12.9957962  89.5083523  42.6638603  13.3131886
  89.7470570  44.1584778  13.3243203  37.4433183  19.6852367  55.7930792
  37.7119636  20.5423372  55.4622686  37.0996761  19.8633544  56.6685307
  26.8630933  19.0252988  68.6851275  27.0614528  19.4880073  67.8710139
  27.5777578  18.3961313  68.7832702  73.8102770  88.5021782   3.2414916
  73.2115698  88.9300632   2.6293707  74.6679831  88.5653400   2.8212678
  78.5585782  99.3398827  75.4671765  78.4224889  98.7855023  76.2355340
  78.0783745  98.8994711  74.7659827  74.8921299  59.8152399  -0.1144667
  75.8458471  59.8965931  -0.1207743  74.5994663  60.4767132   0.5124600
  81.5765476  78.1023216  35.2992320  81.3624191  78.9120340  35.7626367
  82.4860954  77.9232264  35.5377078  66.3104343  72.7796221   5.3675729
  65.8010626  71.9811678   5.5062914  66.6085625  72.7188921   4.4600144
 105.6537697  24.6013229  73.7534869 106.1872909  24.3338172  73.0051375
 105.8928273  25.5160015  73.9033127  48.6634064  92.8388119   8.7871730
  47.9718304  93.1007481   9.3949097  49.3089819  92.3939419   9.3363100
  71.6213608  60.2461433  12.4992669  72.5007725  60.3030968  12.8729296
  71.2581110  61.1252069  12.6066267  18.7577008  11.7794816  68.5942638
  19.6595906  11.5754812  68.8416803  18.2635020  10.9911745  68.8191450
  65.8492470  48.9418936   0.6467415  65.1739120  49.0792513   1.3110352
  66.6333342  48.7134266   1.1459834  80.9041691  63.3433485  13.2676303
  80.9783936  62.4038553  13.4351993  81.7394543  63.5816383  12.8654540
  99.7206066  13.8282459  37.1052444 100.0524995  13.4237974  37.9068029
 100.4413436  13.7482707  36.4804447  10.5913257  28.9382570  72.1625102
  11.4809369  28.9942758  72.5113476  10.1108836  28.4258764  72.8127981
 109.6530768  81.6890925  48.6004961 109.5387646  81.9626802  49.5106113
 109.4766089  80.7483404  48.6092270  26.1154628  65.1302814   5.6532037
  26.7348599  65.7896185   5.9660244  26.6073060  64.3094444   5.6765407
 100.1054881  26.2347143  81.6124022  99.6770690  26.6015069  80.8389986
  99.8828647  26.8403833  82.3193956  89.6871088  29.6475523  76.7807579
  89.2209981  29.2803972  76.0296452  90.0733695  30.4584615  76.4499033
   4.1762780   1.7493980  49.6572864   4.1913270   1.9767539  50.5869711
   4.7658204   2.3817890  49.2464912  87.3099709  54.3499660  15.5383122
  87.9148960  55.0816870  15.4162872  86.4404202  54.7459698  15.4810238
  42.8187561  76.3481236  18.5280156  42.7520990  76.4122820  19.4807339
  43.1674290  75.4706526  18.3708620  74.0787267   6.1668556  87.6774440
  73.5641431   6.6231744  87.0117069  73.4778260   5.5160301  88.0401853
  89.4333169 104.9374788  92.4753344  88.5096690 104.7502726  92.6428624
  89.7475049 104.1758698  91.9880264  12.6093864   7.8880470  70.1315296
  12.4957799   8.3851926  70.9415710  13.0194616   8.5062330  69.5266188
  53.5986423  56.5817213   9.6043849  53.7317324  55.6562614   9.3993413
  53.2598352  56.5823746  10.4996181 106.9940159  49.6674173  46.9334352
 107.5300691  50.4499834  46.8050993 107.0358369  49.5002191  47.8749931
  66.8782854 104.1387272   9.9391586  67.3725700 104.7241974  10.5128694
  65.9645033 104.3935776  10.0667524   6.6513681  30.1557939  70.3612936
   6.5184783  30.8854978  69.7562230   7.5590324  30.2472608  70.6511486
  14.0443324  36.0771005  67.5784338  13.9037275  36.5495698  66.7579210
  14.8971604  36.3826005  67.8876126  33.2084321  28.6676424  66.3000310
  32.9499435  28.0740564  67.0050609  32.7837514  28.3117502  65.5195082
  16.6156005  32.0568006  73.0784858  16.3727426  31.3553255  72.4741829
  17.3461198  32.5012701  72.6483488  31.1021376  49.9239159   1.4017850
  30.5106354  50.5904770   1.0524300  31.3300204  50.2403545   2.2759520
  68.1361151  70.4548550  30.6742167  68.7984705  69.8122501  30.9283376
  68.5155010  71.2991285  30.9181309  84.7311494  87.2549956  66.6443742
  85.2923104  87.4699610  65.8993090  83.8518807  87.1913021  66.2714613
 104.5052433  81.2960052  60.3040314 104.0783024  81.9685459  60.8347368
 104.2711639  81.5177155  59.4027615  19.0381908  10.0348585  91.1413804
  19.7522401   9.5101421  90.7793911  18.9969634  10.8059232  90.5757074
  75.2555370  72.2402763  24.1865444  75.4837465  73.1571150  24.3400121
  74.6875858  72.0085859  24.9213791  55.9719467  87.8698540   9.9929905
  55.9643221  86.9182396  10.0959802  56.3012218  88.0120945   9.1055340
 108.8574264  27.1819990  75.8451045 109.5047734  27.8803461  75.9425128
 109.2292450  26.4420764  76.3252032  76.3479945  86.3259476  73.2064617
  76.9861886  87.0119327  73.0105865  76.0828015  86.4965242  74.1102374
  47.0664310  50.3990078  14.0506744  47.8407001  50.0555944  13.6047924
  46.6023636  50.8954954  13.3766055  85.4490185  56.3439131  14.5693290
  86.1631489  56.7704439  14.0957046  84.8460579  56.0552263  13.8842547
  24.0754699  17.7346675  71.4938987  23.2114505  17.5394742  71.1311281
  24.6736526  17.1691148  71.0054744  84.5850372  82.1492386  18.5978949
  84.0399265  81.8004131  19.3031657  84.9473095  82.9604912  18.9540732
  15.5349826  10.5539720  61.9119323  16.3277625  10.7191341  62.4222768
  14.8345756  10.9668176  62.4171293  57.8877401  85.1838493  40.9173441
  58.5009575  85.3166485  40.1944590  57.8792286  84.2363834  41.0532188
 111.9404599  78.8861459  90.5188732 112.4383017  79.2873495  91.2312083
 112.4248501  79.1196364  89.7269887  70.1925823  96.9154471  68.2471693
  70.2157160  97.8611296  68.1009376  71.0544845  96.7077320  68.6080206
  77.8066206  71.7966509   4.4856521  78.7471724  71.9742680   4.4922701
  77.6576948  71.3250446   3.6661157  63.3239793  19.4306676  45.3924597
  63.3502244  18.8741462  46.1708105  64.1465997  19.9193304  45.4195679
 109.8932908  19.1289108  82.7122641 110.7366059  19.2319267  82.2713101
 109.2840550  18.8943498  82.0122338  71.1566639  43.9658833  20.3266764
  70.7895851  44.7746754  20.6835246  70.4567289  43.6047602  19.7826958
 112.2592971  99.4146650  87.4379790 111.5173432  99.9330443  87.7494508
 112.5753972  98.9568251  88.2168869  52.2132921  80.2270031   2.2130890
  52.0665741  79.9357271   1.3131660  53.1621122  80.1772308   2.3292632
  52.4841069  17.8300350  79.4026983  52.1427106  18.0980937  80.2558256
  51.9094037  18.2594984  78.7690497   9.2489050 106.6642540  69.8190296
   9.0473746 106.8180626  70.7420481   9.3154047 105.7123392  69.7437919
  26.2208032   7.4197071  91.5831836  26.7566251   7.8012388  92.2785684
  26.6538572   6.5921276  91.3738707  84.7595215  44.9605989  19.1998410
  84.5878315  44.7230196  20.1110554  85.3316402  45.7259750  19.2555904
 108.4767482  99.4727486  82.8890753 108.8201710  99.4126432  83.7805230
 108.2390210 100.3941649  82.7856064  18.0068587  30.6434457  75.1775253
  18.8693523  30.3839605  74.8534775  17.5585794  30.9966199  74.4090557
  89.0972042  18.8635314   0.5626421  88.4018230  19.4945943   0.7482027
  89.2273235  18.9219379  -0.3838722  12.1856259   2.8156631  70.6000650
  13.0169105   2.4270837  70.8724583  11.5181970   2.2481935  70.9857452
  77.8101393  76.5809982  90.4177891  78.7049576  76.4796632  90.7422379
  77.4836823  77.3664229  90.8568372  60.7449532  56.8161535   2.7384645
  60.0528765  56.7880630   2.0778020  60.3352356  56.4661074   3.5295594
  55.7452535   3.7843673  83.7145329  55.5381250   4.3300693  82.9558915
  55.0154065   3.9255302  84.3175447  29.8050450  18.4979599  65.9498608
  29.9442815  17.5716941  65.7527006  30.3487205  18.6632411  66.7201412
  67.4279785  56.3568354   2.0546052  68.0895376  56.5086985   2.7295199
  67.2731113  57.2206259   1.6723593  80.5353069  85.0444031  23.5768580
  80.3459644  85.6900978  22.8960800  79.8029232  85.1195240  24.1885757
 100.4572627  96.3920754  60.1719773  99.6407506  96.2216633  60.6415522
 101.1450574  96.1875742  60.8054936   9.1295623   7.5173061  53.1639755
   8.9047717   8.4321229  53.3337057   9.9809789   7.5567310  52.7283490
  59.4983078   8.5871791  30.8806777  59.9458338   9.4029807  30.6561136
  60.1727057   7.9131030  30.7967925  31.8629266   4.2385864  45.7652473
  32.6744015   4.4451999  45.3015089  31.5196789   5.0894546  46.0380793
 103.3315031  94.5654297   4.7896105 103.8627271  95.3261089   5.0249749
 102.4287008  94.8514462   4.9287945  42.8556967  42.8068829  13.2943785
  42.7910519  43.6322832  12.8139937  42.4745941  42.9980564  14.1513765
  12.1291649  90.9490395  42.5051451  11.7750359  90.1523304  42.9001999
  12.2850692  91.5348244  43.2459450  63.3134470  15.9849851  75.3426755
  62.4362490  16.3024347  75.5571139  63.8986752  16.5132253  75.8855391
 102.9863726  44.0907097  27.1877074 102.5211595  43.5015726  26.5937996
 103.4401326  44.7041607  26.6097713  15.4010463  49.4831800  36.1020684
  15.8311975  49.7502089  36.9144082  16.1017609  49.0991688  35.5750346
  25.2329969  72.1082926  41.6827583  24.6734214  72.8653860  41.8557167
  26.0312557  72.4809885  41.3084412  18.1989539  11.1518573  38.4882951
  19.1092409  11.4462470  38.4575486  17.6847363  11.9572448  38.4320545
 109.4054086  57.3659563  47.2226667 108.6762629  57.9815292  47.1475220
 109.2626329  56.7379570  46.5145254  20.0558567  74.6230793  46.1242390
  20.0591874  74.0773153  45.3378773  20.2833629  74.0222168  46.8337727
 101.7761384  75.0402117  42.5383759 102.3380409  75.0117445  41.7639780
 100.8853815  75.0432348  42.1879816  51.5492916  54.7942877  12.7305233
  51.4703417  54.5944643  13.6632991  51.0311604  54.1169548  12.2957861
 110.4156654  84.5572376  25.4492879 109.5145021  84.4966412  25.1323271
 110.9535067  84.4299030  24.6677876  53.1512667   0.5214977  12.9468668
  53.2740224   0.1939773  13.8378727  52.4948264   1.2126636  13.0340636
   9.2133397  84.0188789  28.6862445   9.7211999  83.2202911  28.8296485
   8.6847734  84.1121387  29.4788051   0.0885654  37.0336246  13.6519527
   0.1220752  36.0852336  13.5268342   0.4087687  37.3956775  12.8257430
  20.0737000  95.6348610  24.1960645  20.8702207  95.1559067  23.9671779
  20.1445937  96.4604282  23.7168646  23.6598897  83.0841637  51.4042473
  22.7706218  83.1269741  51.0526752  23.6019611  82.4589729  52.1267509
  36.6989899 107.0014572  38.8771772  37.4105287 106.6829967  38.3217239
  36.5188599 106.2760067  39.4750977  96.8786655  74.4240236  17.2358429
  97.5341509  74.7459316  17.8546715  96.7523800  73.5062361  17.4765551
  28.3733399   2.3697948  13.4767163  27.4951971   2.2969341  13.1028342
  28.7323964   1.4843559  13.4191370  12.5075936  91.5130138  50.4568911
  11.8049002  91.9120502  50.9699440  12.2691989  91.6889381  49.5466948
  54.7612537   1.3985156  41.2286091  54.6353103   1.5067386  42.1712971
  55.6602407   1.0814380  41.1419153  23.6612558  96.6242123  23.7706804
  24.2720318  96.5648460  23.0360651  23.2623029  95.7555866  23.8212633
  27.0096350  69.3081951  18.8068807  27.9345965  69.2021847  18.5845327
  26.6281986  69.7427082  18.0440331  98.8865672  38.6549425  48.2968187
  98.1968318  39.2790747  48.0710888  98.4567474  37.8003454  48.2628870
  31.7374802  95.0689602  32.9471469  32.5871038  94.9443913  32.5242352
  31.6641474  96.0163021  33.0628872  35.1901531 101.0753155  56.0966873
  34.5302129 101.2240791  56.7738724  34.6840334 100.8931351  55.3049278
   1.2366437  62.7268934  13.9787197   0.9589455  61.9181061  14.4088149
   1.7577553  62.4339008  13.2311702  20.1102734  71.1390400   2.9228047
  19.6299720  70.8334875   2.1532714  20.9377956  71.4693785   2.5730675
   8.3612157   0.5348014  14.8611665   7.8729416  -0.0593091  14.2912126
   8.4597779   1.3348579  14.3449998 111.6042864  52.6070929  40.4974556
 110.7511102  52.6062489  40.0634956 111.4271365  52.9500532  41.3733721
 104.2431603  33.4217834  29.4567490 103.4527825  33.9616394  29.4471884
 104.3807374  33.2149029  30.3811455  18.3772159  17.9969310  88.0624294
  18.1984068  18.3932876  88.9151669  17.9568220  18.5829257  87.4330521
   0.2532964  90.8051205  17.0385969  -0.4467798  90.2266979  17.3411763
   0.9556886  90.2119446  16.7720985   1.5848798  54.6631193  80.0960064
   1.9848946  54.4275379  80.9330940   1.7165905  53.8933372  79.5425463
  12.7771354  66.4815617  58.7250042  12.8105891  66.7482424  57.8063107
  12.1829641  67.1099234  59.1353178  91.9434570  85.1933193  64.2747116
  91.9271444  86.0323238  64.7351885  91.0574721  85.0940800  63.9262676
 103.1625532  60.3367949  62.6725483 102.9157375  60.6852388  61.8158674
 102.9953395  59.3966722  62.6059532 109.0757729  78.9631796   8.2128221
 109.3767045  78.7418270   7.3315299 109.7071184  78.5401630   8.7947947
  80.7557059   7.0307159  47.6474428  79.9098683   7.1832561  48.0687761
  80.5347634   6.6484737  46.7981434   0.4332041   7.1077316  79.9860883
   0.5414890   6.1725919  79.8128319  -0.0114776   7.4454420  79.2086292
  28.8143457   0.4082965  52.0998430  29.2391748   0.5950260  51.2626505
  29.4715465  -0.0766087  52.5990295  55.6439722  10.6074714  27.2990179
  55.5450583  10.3290748  28.2094812  54.7678996  10.5165576  26.9242334
 107.0052730  78.0466080  23.0090833 107.7640180  78.1908894  22.4436426
 106.3764219  78.7169123  22.7417397   9.6987832  90.3100014  13.4362531
   9.6815091  89.4923401  12.9388845  10.4604685  90.2254391  14.0097642
   5.2695757  67.9330540  22.2179556   5.2508014  67.0768547  21.7903924
   4.4172519  68.3197165  22.0172882 106.7054526  49.1775513  69.8387814
 106.8541126  49.4425106  68.9310789 106.0061084  48.5260677  69.7866488
  35.1297832  61.6112471  48.0240297  35.7140565  62.1986389  47.5446272
  34.7785664  61.0240078  47.3546791   7.5145388  95.5223465  47.4522972
   8.2262349  94.8996258  47.6004171   7.1351504  95.2575970  46.6143227
   0.1025043 101.1918640  40.7197571  -0.1151962 101.9313145  40.1522589
   0.7656951 100.7030678  40.2324295  19.1351509 105.0128651   5.6865066
  18.4873950 104.5767879   6.2401170  18.6265171 105.3698063   4.9584186
 111.0436840  66.7341375   2.1859592 110.4732235  67.3513079   1.7278039
 111.4988093  67.2672367   2.8378001  10.2070117  93.0080605  37.4914289
   9.9032032  92.4445629  38.2030487  10.3623533  93.8561630  37.9071546
  66.6570855  10.5397224  13.7979436  65.8056093  10.4361820  14.2227912
  67.0496155  11.2983703  14.2299116  23.9899183  17.6000785  65.2913284
  23.3492125  18.2797813  65.0822115  23.4962083  16.9519805  65.7937765
 109.6556117  40.0894642   3.0767366 109.2170756  40.1743317   3.9233273
 110.4820304  39.6504378   3.2780287  11.6803372  74.2642450  38.8597465
  11.3178825  74.0294075  38.0055141  11.3858402  73.5663557  39.4449425
 102.4636076   4.9542539  89.4307414 103.3506844   5.1429241  89.1245857
 102.5667307   4.7688882  90.3641415  45.3446960  63.1008196  55.4028845
  45.0336790  62.2692347  55.0451612  45.1748753  63.7383509  54.7093821
  85.3939772   7.8821849  15.2589250  84.7234202   8.3983325  15.7063353
  84.9321318   7.1002864  14.9563384  62.6956869   1.7738246  54.2728043
  62.1091677   1.7324352  53.5174847  62.2173620   1.3284778  54.9721622
  63.2103659  17.9480647  28.7501717  63.1140829  18.5259437  27.9931951
  63.1421924  17.0648670  28.3874679  20.4898572  91.5420437  18.3408618
  20.0961900  91.0008240  17.6565039  20.1914310  92.4302197  18.1451261
  31.1430955  97.8498554  43.1890678  31.1210227  98.6036110  42.5995016
  32.0342779  97.8450012  43.5383558  95.8523880  95.0735664  60.0796747
  95.9897147  94.4333458  60.7778788  96.1485563  94.6289921  59.2854023
 102.1783410 102.6446438  42.7491093 102.5368093 102.7199364  43.6334515
 101.8683444 101.7408085  42.6924753  14.9849606  71.7991352  19.5030415
  14.3455303  71.4806223  20.1401520  15.0625658  71.0889149  18.8660192
   4.6413466 106.2615681  54.6474314   4.8429754 107.1546268  54.9267721
   4.2502183 105.8518124  55.4190207   3.1221464  88.5343742  20.4195523
   3.8326943  87.9780197  20.7386589   2.4633509  87.9197216  20.0964093
  97.0885441  32.0079820  91.2049218  97.5833914  32.5100915  91.8524073
  97.5036380  32.2202985  90.3689504  24.9749064  53.2824135  26.6899562
  24.0670419  53.4173346  26.9616389  25.4885745  53.4475136  27.4806023
 105.0509910  99.1977310  50.2329016 104.3822680  99.8750782  50.1316738
 104.5560680  98.3955479  50.3995895  13.3678019  56.5885401  35.2460527
  13.3195210  56.2641668  34.3467832  13.6579335  55.8334351  35.7577872
  43.7222625  18.3764076  25.9242892  43.2972003  19.2237853  25.7919741
  43.3627207  18.0545902  26.7509651  43.7798173  11.8656825  11.9947350
  43.8900001  11.4243793  12.8369617  44.6337331  12.2602176  11.8175423
  82.6390395  19.7056215  89.8394132  82.2924880  19.9598949  88.9841476
  82.0484242  19.0156572  90.1416584  20.7123756 104.0645123   9.6577430
  20.1125193 104.8088360   9.7065461  20.3299236 103.4918785   8.9928764
  27.2547221  70.8450127  28.0487132  26.3237166  70.6288099  27.9965925
  27.2743416  71.7967415  28.1490421  65.1820899  19.8943138  38.4397864
  64.7262169  19.6266746  37.6417994  65.0298668  20.8375549  38.4976912
  70.8080984   2.1571063  37.1396565  70.4851819   3.0578899  37.1631503
  71.7583633   2.2451782  37.0656610  94.2239807  43.0552404  73.6823976
  94.0289304  42.2803419  74.2093790  93.5428784  43.0652158  73.0099154
   1.0809801  74.2246914  64.1975594   0.5764886  73.7206411  64.8360348
   0.4472240  74.8337269  63.8185310 100.0677918 101.3100338  21.2905455
  99.5212184 101.4056206  22.0705152  99.4537018 101.0742855  20.5951691
  79.3105365  15.7887363  30.4287791  79.9544574  16.3423824  29.9871087
  79.7930241  14.9933814  30.6542826  12.4501895  28.9387529  76.2437868
  12.7876186  28.6991994  77.1069157  12.2222518  28.1035440  75.8354855
  43.5718822  99.6849823  29.3177032  43.3088541 100.4070854  28.7470770
  44.4991159  99.5504379  29.1218138   3.9376641  12.6085090  34.5144796
   3.1036568  13.0753612  34.5665026   4.0416933  12.2071361  35.3772140
  88.1749414  87.7224827  36.9040704  87.5508259  87.0043659  37.0090795
  87.9160260  88.3635616  37.5660419  45.8113743  13.9698600  35.1605368
  45.4671855  14.0054130  34.2680693  46.6775889  14.3725585  35.0993991
   3.2563260  86.1365318  27.1281838   2.9258576  86.1469269  28.0264688
   4.2002818  86.2668514  27.2187257  21.3758731 100.8028030  44.6708298
  21.4201498 101.5908813  44.1293573  20.9102273 100.1657677  44.1289854
  99.5439659  77.3182678  37.2685480  99.5506321  77.1009874  36.3363600
 100.4488169  77.5615311  37.4642539  33.3772111  92.0537472  24.2917800
  34.2575145  91.7356682  24.0914655  32.8942037  91.2709427  24.5566559
  54.0142227   3.0730438  25.0333810  54.1835774   2.2814464  25.5441976
  53.7003840   2.7503871  24.1886163  37.1772218  75.4915142  17.2925925
  37.4330521  75.0861931  16.4640415  37.6985693  75.0355768  17.9533112
 101.4628503  41.7789953  92.4159187 101.5483067  41.0210435  92.9942236
 102.2384641  41.7418687  91.8562074 111.8226194  13.4525203  29.6743846
 111.4327478  13.3248042  30.5392098 111.3987064  12.7963161  29.1212797
 100.6849943  85.7849026  27.9167104 100.7039331  86.4534760  28.6014557
 101.5432881  85.3643608  27.9687715  24.8065639  63.5916376  16.9043565
  25.2087259  64.0513039  17.6413786  24.7162437  64.2603827  16.2254930
   1.7719968  74.5015097  34.5904827   1.7547484  75.0363970  33.7968683
   0.8498239  74.3464470  34.7948956 109.8698379 101.7536831  15.6431830
 109.9561317 102.4891663  15.0366735 110.1675911 100.9941483  15.1425028
  15.4550552  92.9999733  38.2753158  15.2697933  92.8049469  39.1939402
  15.7321382  93.9161968  38.2761478  34.4717741  91.8501186  44.5267916
  34.9737883  91.0650826  44.7457170  34.0668154  92.1136379  45.3531075
  39.3622327  79.5316505  32.8485894  38.7214136  79.0309525  32.3437309
  39.1206193  80.4462337  32.7023315 104.5385466 102.7241325  30.3371215
 103.8705675 102.1120739  30.0282192 105.1103000 102.8563595  29.5809174
  29.7579384  77.3288107  67.5528383  28.9164376  77.5781679  67.9348469
  29.7486520  76.3716650  67.5570107  44.4725407  33.4414100  55.2771807
  43.8252998  32.7367782  55.2488327  44.0372843  34.1473483  55.7551241
  16.8151140  64.8709345   5.4949236  16.8131614  65.8260059   5.4311705
  17.5928736  64.5999193   5.0071996  45.8554647  49.9614351  86.0068584
  45.7279465  49.9059598  86.9539023  44.9823210  50.1401060  85.6576765
  17.8758455  29.9060058  13.9473259  17.2396947  29.8958396  14.6624768
  17.5320006  29.2780589  13.3119631   8.7821198   3.3470535  84.2798615
   9.3910457   3.8176727  84.8490238   8.2017899   4.0263080  83.9362717
  10.0660121 104.2288208  27.3967671   9.6056426 103.3982182  27.2768259
  10.3608167 104.4683170  26.5181494  50.6775428  24.2210864  68.1697035
  50.8302618  25.1233196  68.4505844  51.5519405  23.8738918  67.9933167
  31.9977903 101.5071011  16.2221706  31.4922333 102.1065807  16.7710471
  31.9873285 101.9105434  15.3542089  39.4724470  17.3570156  38.2225895
  40.3576142  17.6589775  38.0187964  39.0241630  18.1352901  38.5536075
  34.1092610  88.8137913  31.0047555  34.3630505  89.1209698  30.1344323
  34.2385674  87.8659534  30.9713483  90.8619331  90.8385086  17.8909850
  90.5715083  91.1241245  17.0247829  90.3873824  90.0216961  18.0454350
  38.6257005  71.8849850  41.0360765  39.5416832  72.0966864  40.8560944
  38.6045337  70.9289217  41.0775805 107.9140489  92.2888184   1.1316242
 108.2391940  91.4627266   0.7737243 108.7035330  92.7999306   1.3097054
  24.8184204  95.6309223  43.2113266  25.2872658  94.8109055  43.3662033
  24.4021058  95.5112648  42.3577499  26.1834359  93.5510540  59.4322157
  26.8431139  92.9321575  59.7453070  25.4652095  92.9992580  59.1225243
  21.2891674  67.9612970  10.1626885  21.9230175  67.5514650   9.5740414
  21.7883134  68.1519938  10.9568679  32.1008253  44.0323305  13.8998044
  31.5064836  43.2823896  13.9237726  32.3099589  44.2016506  14.8184037
  75.0168107  19.5440071  76.6979063  74.9772946  20.1098506  77.4689377
  75.6784364  19.9490802  76.1371947   3.8753563  56.7989874  12.7588677
   4.4889385  56.8551397  12.0263410   3.0661130  57.1849155  12.4235821
  93.2062432  84.5971268  81.0123313  93.1589028  85.3464859  80.4186535
  94.0937134  84.2570322  80.8984578  95.5044888  68.8937426  14.8666453
  94.8681615  69.3831015  15.3880322  96.1903010  69.5306778  14.6661210
  10.3591168  91.2192059   5.5031669  10.6272054  91.7715931   6.2374878
  10.4704976  91.7752361   4.7320259   9.0435141  57.5808668   5.0127357
   8.2836878  57.0153332   5.1508152   9.3587786  57.3493767   4.1390938
 110.7020350  82.1599102  22.8643942 109.8781280  82.5817680  23.1082106
 111.0106367  81.7516518  23.6732960  97.1138917  77.0092869  48.5174084
  96.5784024  77.7868128  48.3594847  97.0654605  76.5148878  47.6992083
 108.6810414  95.8277798  44.8962259 108.1998335  95.0006390  44.8733854
 108.4738781  96.2485218  44.0617847 102.8363727  54.2317772  11.8452489
 103.2688533  55.0808573  11.7544031 103.2618581  53.8258505  12.6005089
   2.9882345  35.2559209  17.2351003   2.3223880  35.8087015  16.8260634
   2.5396699  34.8496008  17.9766703  16.6779375  97.7622223  32.1109939
  17.1837759  97.9253197  32.9070830  16.9888175  98.4213829  31.4904308
  25.6715274  55.8183098  32.6083803  25.8945680  55.5113506  31.7296004
  24.9925852  56.4779711  32.4665236  46.2482834  84.9247074  24.6065736
  46.1964226  85.6245136  25.2575827  45.6674623  85.2101421  23.9013052
  95.9377669  62.8629494  31.5379286  95.8842812  62.0449400  31.0437274
  95.0836788  62.9424191  31.9627213  38.9840627  44.3660975   8.3636796
  39.6063018  43.7548113   8.7578630  38.2196331  44.3339252   8.9388692
  96.2424575  71.7318392  14.7991526  95.8751021  72.0500660  15.6237805
  95.8814238  72.3180008  14.1340971  32.0202518  43.6476755  19.4254136
  31.9383502  43.5887289  18.4735477  31.2479377  44.1407919  19.7021842
  92.0392941  57.7646446   7.8086817  92.7042793  58.0985641   7.2065818
  91.6503619  58.5492945   8.1950575 101.1724935  91.6619015  23.3587027
 101.6799925  91.8918037  22.5803566 101.8004952  91.2243080  23.9334679
  41.8498373  51.8174267   4.3441674  41.0680962  51.3857460   3.9995471
  42.0597029  51.3316822   5.1418132   4.0135172  51.7141581  31.7934370
   4.3589452  50.8346748  31.6403937   4.1768029  51.8773174  32.7223873
  14.7223973  60.1492500  39.5217705  15.4173887  60.4379702  38.9302826
  14.2114544  60.9399271  39.6949697  21.1944818  83.3663559  50.5289125
  21.0859919  84.2516994  50.8762312  20.3084159  83.0911446  50.2935886
  81.9332026  33.9453673  33.1761861  81.1352538  33.4529138  33.3685279
  81.8184422  34.2445827  32.2742248   2.6897514  60.2362633  50.7171297
   2.3910055  60.8155584  51.4181328   2.0676835  59.5088148  50.7261276
   4.3053240  90.0869656  22.5328970   3.8931328  89.4578934  21.9407892
   4.2357442  89.6828938  23.3978319  89.5472072  93.1809425  29.6654630
  90.0042509  93.8966370  29.2237329  90.1272963  92.4265575  29.5624018
 108.9248352  58.9479828  27.2715950 109.5657746  59.4839525  26.8045139
 108.5140116  59.5512295  27.8909087  11.8229628  47.0684195  33.7960792
  11.3831663  47.5645781  34.4864678  11.1660624  46.4394522  33.4975600
  32.9221654  89.5148373  74.2850924  33.6108208  90.0524902  73.8940477
  32.6496124  88.9258194  73.5815334  11.3344669  86.2423038   2.4552011
  10.4776490  85.9195518   2.7343595  11.7621517  85.4799175   2.0652148
  13.1952775  92.8274632  77.9745150  13.8502884  93.3874035  78.3912277
  12.7997518  93.3815002  77.3015881   3.2772484  52.6738358  18.1386042
   3.0044132  52.6917982  19.0559208   3.7609658  51.8527651  18.0486298
   8.6361611  52.3372889  43.3654404   9.1011161  52.2290516  42.5357819
   9.3260968  52.5111961  44.0057373 111.8878414  78.4069681  20.5098128
 111.2031440  78.4350538  19.8415077 112.7061792  78.4677744  20.0170088
 104.6533160  81.2936592  16.9406724 103.8934396  80.7465363  16.7420053
 104.2802905  82.1335506  17.2084057  33.1144762  67.7831984  37.0067787
  33.6372304  67.1233034  37.4622989  33.0974436  67.4885702  36.0962105
  79.8534919   5.1149463  37.6662993  79.5459033   5.8819580  37.1832705
  79.0563346   4.7159480  38.0149698   2.6679563  16.7280691  88.2975069
   2.1131181  16.8430345  87.5260333   3.3829545  16.1671512  87.9968721
  24.3698263  62.1565104  22.2831130  24.4846463  62.4391174  23.1904078
  24.9604321  62.7178717  21.7808318  33.9028001  42.3683119   2.3355463
  34.7702408  41.9674826   2.2797643  34.0564680  43.2969999   2.1618952
   9.0158033  89.3041515  37.9234290   8.9301687  89.9766541  38.5991764
   9.7649360  89.5860863  37.3985052  69.3435798  10.1425569  69.0913856
  69.5957497  11.0399978  69.3087280  69.3753198  10.1097314  68.1352747
  33.2249856  18.9375567  33.4978700  34.0315723  19.2608106  33.8993144
  33.3162141  17.9848003  33.5106635  39.0482304   5.4168336  73.9407814
  39.9284909   5.1910512  73.6401213  39.1030715   6.3454072  74.1665566
 106.0110258  55.1690006   4.7214016 105.4638217  55.9278965   4.5192248
 106.8943725  55.5271530   4.8089030  19.7799397  52.7669716  63.9756012
  19.6665454  52.6331282  63.0346155  18.9203691  53.0562592  64.2816782
  36.2644100  29.1144705  15.0433898  37.0709372  28.7705135  14.6594107
  35.5991983  28.4603977  14.8291183   2.7207777  46.4653254  39.6045494
   3.3324009  46.4450073  38.8685226   2.7302659  47.3761320  39.8987746
   6.9033533  65.5052233  42.7579308   6.6795039  66.4355373  42.7832365
   7.8154802  65.4861403  42.4682856  95.3008519  53.4204674  43.5965681
  95.1083778  54.0790606  44.2639828  95.6907152  53.9160872  42.8764248
  15.3763032  87.6354408  10.8347499  14.7158027  86.9431591  10.8616590
  15.1706100  88.1320763  10.0427425  13.4197950  46.7448044  25.9760165
  12.9266691  47.5254917  25.7238650  14.3229294  47.0497465  26.0631347
  68.8821575  84.5102637  91.2422777  69.3707630  84.8325866  90.4849100
  69.2155000  85.0233429  91.9783929  33.8049841  45.4023027   5.5595827
  33.2027936  44.6925354   5.3363681  34.6311450  44.9617672   5.7586372
  50.2081106  40.4918306  63.1723321  50.0933168  40.6599920  62.2370375
  49.3198249  40.5043905  63.5287369  37.7857614  65.2723026  35.4399014
  37.8917599  65.1166630  36.3783956  38.3476281  66.0253668  35.2570415
  90.0124381  29.3219583  90.0623910  90.2705691  29.9030607  89.3469054
  89.2287562  29.7295396  90.4311097  36.2792606 102.9785078  87.1160728
  35.6770456 102.3826950  86.6704554  36.3907529 102.5987642  87.9876197
   6.9461113  50.5426073  25.9430408   6.6506159  49.7345161  26.3624430
   6.1476839  51.0573578  25.8256698  18.2558024  48.2477903  14.0428710
  18.4134257  47.6600552  13.3039868  17.3202133  48.1586885  14.2244399
  95.4704366  42.8874986  79.5965517  96.2887142  43.3568494  79.4341910
  95.7464883  42.0174806  79.8848307   8.3359694  33.9462352  37.6905227
   8.2291460  34.2375875  36.7850208   7.8864801  34.6120620  38.2109690
 111.1252750  78.7195587   6.0016352 111.6614385  79.4961786   6.1617059
 110.4814814  79.0026522   5.3523123  40.2048016  93.5453796  11.8643999
  40.7757473  93.6925125  11.1103427  39.9796081  92.6162720  11.8166351
 110.3077973  86.1337185  36.0072899 110.9429049  86.8289852  35.8356285
 110.2973391  86.0489178  36.9606686  20.9099960  98.5668659  85.6285954
  20.8108330  98.4758472  86.5762901  20.3203344  97.9081345  85.2617073
  16.0349441  91.2660599  13.7013161  15.4588068  90.8093834  14.3142986
  15.6407630  92.1327114  13.6024785  94.5599935  50.4509275  80.3781605
  95.3340302  49.9078386  80.5270171  93.9292131  50.1538007  81.0339511
  27.8243876  72.5006866  37.9781914  28.0375028  72.7177477  37.0706153
  27.0800066  73.0637026  38.1906629  12.2773731  94.3105221   5.7740015
  12.6981401  95.0368214   6.2340891  12.7788222  93.5384178   6.0359669
  18.3550978  89.5693970  38.5113525  18.7578440  90.2396488  37.9592729
  19.0397954  88.9104080  38.6260748  17.8338802  54.8253059  40.5458355
  17.9619825  55.1197624  41.4475632  17.9956031  55.6046391  40.0141287
  91.4058766  36.5052812  67.6922763  92.2902677  36.6312330  68.0361092
  90.8739719  37.1513097  68.1569875 110.0842215  44.3229818  29.9767399
 110.1680823  44.0498018  30.8902884 110.8447395  44.8836994  29.8236418
 109.0200274 100.0210190  29.7813058 108.5770322 100.7907772  29.4242978
 109.0454777  99.4001484  29.0532207  69.0104198  90.3542805  17.5525737
  69.2174244  90.0534058  16.6677821  69.1864729  91.2949467  17.5330019
  10.6747067  79.2776442  15.0716496  10.7056737  78.5364294  14.4667733
  11.3624012  79.0935183  15.7115006  19.5290840  83.7241650   8.0999815
  19.9627924  83.0274487   8.5926467  18.7736404  83.2972336   7.6959187
  21.5415001  77.9808378  16.9777918  21.8844175  78.6484051  17.5719261
  20.6262851  78.2270002  16.8435633  39.7041059  70.8705282  60.5004215
  39.6184063  70.5401993  59.6061230  39.6305084  71.8208647  60.4128027
  16.8440270  94.9946117  26.8779278  17.4902976  95.3687286  27.4767613
  16.6781020  94.1170883  27.2223806   3.6660904  95.4056549  24.1095853
   3.0902600  95.0863934  24.8043680   3.8080716  94.6441078  23.5473442
  91.5879104  12.9418294  91.3070319  91.1179779  12.5038116  92.0166329
  92.0801721  13.6390750  91.7403414 112.2636794  56.7876863  11.9558966
 112.3605531  56.1963224  11.2094820 111.8313724  56.2585020  12.6261985
 112.0597427  38.8208556  15.1003981 112.3900651  38.0753064  14.5991206
 112.6169018  39.5529342  14.8360789  30.8745527 104.2151260  37.0510387
  31.4986062 104.8609161  37.3823118  30.1107693 104.3059254  37.6207972
  10.8871794  62.5086021  33.4392214  11.4998662  61.8352222  33.7348628
  10.8791733  62.4232244  32.4858689 110.4066603  93.0166721  28.0949235
 111.3070814  93.1167984  27.7859735 109.9301244  92.6762104  27.3378038
   6.7212635  93.3311939  16.1549509   7.3229438  92.6557827  15.8418584
   6.2309337  92.9073143  16.8593204  89.2112396  84.6795289  88.0711848
  89.4666884  83.9225309  87.5439921  88.3288393  84.4709795  88.3779547
  28.5958147  70.5177736  44.5948887  27.6812863  70.4077291  44.3345785
  28.6038232  71.3276100  45.1051188  41.9265318  74.0992117  50.5310345
  42.5418663  73.3712244  50.4436636  42.1591568  74.6961212  49.8198271
   3.8969931 102.2634506  20.8315301   3.8730764 102.4423409  21.7715597
   3.5467422 101.3766003  20.7475090  63.4018108 106.2782829  81.9471169
  63.3160660 106.5941923  82.8466058  63.1968328 107.0401590  81.4051199
  76.8824803   4.3829458  84.2741525  76.2827381   3.9142053  84.8545164
  76.3703320   5.1225965  83.9472658 104.2424612  95.5182838  25.5076671
 104.3941788  96.1985493  26.1637592 104.0412526  94.7338963  26.0180449
  25.6814861  51.4949560   9.4849396  25.0624895  51.2639666  10.1775587
  25.1306891  51.6905594   8.7269193  10.4559648  58.3720016  28.3275127
   9.7437412  59.0023661  28.2197618  11.2058282  58.7818289  27.8962636
 112.0039919  46.4591932  29.5191121 111.7155091  46.9606113  28.7564945
 112.6758882  47.0065928  29.9254870 106.0284089  67.7985430  18.9559627
 106.0983925  66.8439150  18.9508927 105.1141177  67.9704762  19.1812205
  23.4875226 104.0646267  25.7953525  22.5801444 104.1765594  25.5118608
  23.5790062 104.6540546  26.5439725 102.0591544  79.6325397  27.7811909
 102.7133201  80.0547218  27.2243547 101.2219237  79.8382568  27.3653102
   4.9726191  54.3505287   3.0356613   4.1264966  54.7547245   2.8434861
   5.5951321  55.0774002   3.0166206 110.8974799 103.3999443  23.0718303
 110.8751145 104.0771294  22.3956966 111.7518251 102.9819679  22.9640245
  81.5209390  22.5749206   1.4135593  80.9058333  22.7013873   2.1359724
  81.0392476  22.0443916   0.7789391   6.6901881  48.2199717  27.3041797
   7.3123801  47.5401592  27.0454121   5.8410764  47.7781391  27.3092580
  45.1505686   3.8922405  16.3120961  45.0221641   2.9439449  16.2902570
  44.3572391   4.2505931  15.9140432  10.1064146  71.9823742   4.2315900
   9.9724209  71.6597986   5.1227814   9.2614645  72.3571730   3.9829603
   9.2551464  62.0109272  20.6930184   9.3112516  61.3977623  21.4258981
  10.1397884  62.0293856  20.3279161  87.2888993  59.2675352  44.8959637
  87.2171114  60.1465702  45.2679539  87.9772685  59.3426085  44.2350960
  10.8174622 102.5613213  12.1522748  10.9394646 101.8942642  11.4767158
  10.2096784 102.1629333  12.7752602  16.1668587  86.8203068   7.8833228
  16.9932401  86.6221142   7.4428189  16.1129451  86.1784840   8.5914111
  35.1959825   4.0456485  27.3184609  36.0896046   3.8489150  27.0374465
  35.0762240   4.9711513  27.1055460  73.2761049  74.1792536   2.7387065
  73.5134792  73.2576227   2.6363152  73.8123655  74.4848490   3.4703234
  10.6332779  77.3783636  27.1102619  10.2623510  76.4986324  27.0415664
  10.4408467  77.6500225  28.0077052 102.1111105  21.8165605  77.9897082
 101.7903230  22.3729007  77.2799111 103.0144594  21.6144960  77.7460611
  21.4922619  58.4413385   4.3009710  21.3682342  57.6182127   3.8284084
  22.4369812  58.5930252   4.2739499  33.3726978  85.5193615  36.3506198
  32.4377942  85.7029247  36.4427757  33.7799120  85.9743214  37.0877957
  98.7645958  68.2981634  63.1658125  98.2302187  68.1450176  62.3865700
  98.2332621  67.9664087  63.8895941  35.1110366 106.5879171  75.4559136
  35.9215247 106.4037150  74.9811387  34.4373593 106.6191595  74.7766388
  19.8024869  55.0372791  77.0528221  20.6549358  54.7262096  76.7481995
  19.2563760  54.2516041  77.0795107 105.1012699 103.9983749  18.3352780
 105.9444474 104.3824387  18.0949032 104.7449921 104.5953941  18.9932024
  85.1112882  24.3461864  69.2082084  84.5893315  23.8567083  69.8439801
  85.3253797  23.7054555  68.5300768   2.4231853  77.8307915  10.2138495
   1.6992912  77.8509378   9.5879072   3.1259805  77.3730087   9.7526050
  15.4969871  78.1423426   4.9472269  16.2779272  77.6655197   4.6661499
  15.0767696  77.5612068   5.5812037   8.1795453  33.9311521  89.1849912
   8.2031678  33.3537309  89.9480549   9.0342378  34.3621175  89.1842014
   6.1052090  55.3601980  25.4727268   5.2705067  55.0056458  25.1664639
   5.8798414  55.8591795  26.2578773  44.8263597  50.1658249  27.2332788
  45.2867842  50.6380653  27.9269862  45.4525137  50.1322412  26.5100670
 108.9750801  50.3710842  33.3351827 109.6504168  49.7002459  33.2345486
 109.4625588  51.1810780  33.4852028  47.4483896  10.9733867  27.6508713
  48.2971288  11.0382652  27.2130752  46.8776936  10.5551719  27.0061779
  51.2986768  26.6092681  15.7661963  51.8902243  26.0172080  15.3016961
  51.4403642  27.4614620  15.3539741  22.2131753 100.6767941  10.0422478
  22.4000335 100.7695389   9.1080546  23.0271101 100.3402519  10.4170525
  18.4535015   3.4252738  32.3816013  18.8492525   3.9774513  31.7072773
  17.5738359   3.2394313  32.0531440  13.7818122  65.3365326  35.9343219
  13.5268462  66.2312460  36.1595225  13.8435340  65.3383112  34.9791169
  35.0141811  70.8850574  33.4063697  35.2195692  71.4172268  32.6377034
  35.1556039  71.4722633  34.1489506   7.5146365  44.4029617  78.5778141
   6.9170600  43.7917995  78.1469774   7.7933681  43.9460945  79.3714190
   6.0754788  90.8515549  55.4173470   5.1797169  90.5696392  55.6027365
   6.5957236  90.0502110  55.4758692   0.6560679  66.8185377  29.1791034
   0.1964275  66.8259192  28.3395147   1.0567826  65.9504700  29.2251587
  19.6968961  99.3471527  43.3313894  18.9675665  98.8144398  43.6484575
  19.4466078  99.5895481  42.4398565   3.7843904  72.3163843  50.1869917
   3.0076382  71.7879438  50.0035810   3.9591056  72.1707106  51.1167669
  21.2111211  96.4166355  26.6600680  20.9460044  96.2978077  25.7480240
  21.8835306  97.0970917  26.6273236  17.6906550  41.0697842  15.5177164
  18.2051146  41.8731833  15.5959141  16.7818391  41.3581705  15.6020725
  24.9741483 105.5725670   9.8443043  25.5581975 105.5450153  10.6021690
  24.3394256 104.8744583  10.0055635  18.9151943  99.7732162  37.8375173
  19.5064390  99.4352436  37.1648812  19.1364515 100.7019520  37.9061866
   4.0301417  60.9244935  88.8873378   3.5185384  61.3737123  89.5601684
   3.4356021  60.8559053  88.1403131  17.0042276  93.9826679   0.7969418
  16.8124938  94.5595169   1.5363422  16.2005115  93.9844608   0.2770695
  94.2141340  19.9333208  80.9929204  94.9766014  19.3567817  81.0427535
  93.4636245  19.3463771  81.0849345 109.3740495  64.9182749  23.2021594
 109.5182459  65.7951927  22.8465533 109.2425691  64.3659496  22.4315262
 110.3916524  44.9305551  75.2038241 111.0316560  45.4890649  75.6450785
 109.5762537  45.0751894  75.6838656  27.7117885   6.5157127  53.4274054
  28.5184253   6.1625480  53.8026953  27.8369559   6.4451217  52.4810553
  51.8398715   3.8827800  15.7858133  51.4742566   3.6806297  14.9245989
  52.4670828   3.1788253  15.9509897  24.1296124  54.4898844  42.0001125
  23.7794995  55.2834082  42.4050522  25.0288582  54.7180080  41.7644215
  94.4875393  22.0875614  75.7329464  95.2836130  21.5612714  75.8072079
  93.7827275  21.4934652  75.9908676  97.4632189  26.3853948  78.3529926
  96.7595265  25.7797639  78.5859263  98.2673619  25.8933465  78.5187376
  59.9626896  85.4835480  79.2264355  59.0204689  85.6520217  79.2347920
  60.2217933  85.5261701  80.1469136 105.2555017  61.0484886  46.7583752
 105.0815783  61.7193985  47.4185705 104.8811661  61.4032364  45.9519911
  67.4281416  14.5101373  82.5691003  68.0665991  14.5876996  81.8601656
  67.9583798  14.3890684  83.3567679  12.1126676  58.9677429   2.1552996
  11.1754584  59.0599489   2.3266707  12.2226882  59.2731953   1.2548405
  60.8656178  16.3464229  86.6255093  61.7448208  16.7244403  86.6071856
  60.2862785  17.0944231  86.7707426  23.9208221  71.4576817   9.7905457
  24.3104506  71.5090609  10.6633461  24.5528054  70.9563780   9.2752582
  65.8787990  11.0885620  23.3670616  66.8274189  11.0259532  23.2555723
  65.5200935  10.5032348  22.7000189  31.6793156  72.3712158   1.3776039
  31.8169808  73.3180904   1.3510820  31.3097668  72.1588135   0.5205448
  29.6851206  84.6908283  27.6948953  30.2012444  83.9194012  27.9288745
  29.8880696  84.8439026  26.7720675 104.5417033  52.5106621  35.8684826
 105.1316665  51.7571115  35.8500838 104.0138034  52.4209738  35.0750637
  14.1099393 102.7654839  48.6500597  14.2378521 103.6233711  48.2452297
  13.3182752 102.4211693  48.2365942  47.5888128   3.8165092  39.5120096
  46.8100221   3.6976528  38.9683270  48.0980266   4.4876289  39.0575552
  81.7884801 100.6840801  20.5108047  82.3906420 101.2032604  21.0438085
  81.6270064 101.2240696  19.7371292  43.9757395  57.5066853   1.5644681
  44.8462391  57.5840759   1.1739880  43.8426304  56.5644741   1.6681136
  37.7967906  80.3211021   9.8882043  38.5964751  80.8344841  10.0029850
  37.7458072  80.1647758   8.9452338   4.3766800 101.2197208   3.0886203
   4.2747480 101.8413067   3.8093618   5.2946889 100.9519958   3.1312507
  57.3786689  10.6346034   9.4051701  57.1928132  10.7449436   8.4726930
  58.0937601  11.2461662   9.5808715   2.5016811  82.4400425  11.6606796
   3.3668885  82.2822952  12.0385194   2.6806962  82.7434254  10.7706523
  14.7820210  82.5618839  32.5708914  14.4181705  83.4273720  32.3844194
  14.3989551  82.3174572  33.4133577  89.3232927  57.2898691  87.7704856
  88.9391587  57.7418439  87.0192296  90.1708052  57.7159326  87.8986392
  25.0785971  60.9228706   0.9866820  25.6190920  61.0735369   0.2111839
  25.4092503  61.5458775   1.6338038 111.2273863  49.4312048   9.4583148
 111.6618015  50.2836514   9.4291121 111.1445539  49.2364502  10.3918254
   4.4008633  92.8490543  22.5340343   5.3271770  92.7750301  22.3044825
   4.1413879  91.9591331  22.7726722  68.8630200  11.3243484  22.3751950
  69.4779492  10.5909728  22.3911500  69.1173030  11.8664169  23.1220055
  36.4375234  99.3157864   1.0815927  36.0067320  99.2632580   0.2284272
  36.3875651 100.2418518   1.3185203  19.2027843  70.9969664  12.3533630
  19.0353048  71.2517738  13.2606971  19.8104858  71.6603851  12.0265508
  52.0100021  94.4626999  12.1009874  52.6278400  94.4808006  11.3701117
  51.1948729  94.8050117  11.7340827  18.2245266  64.0824223  15.2395499
  18.7635243  63.5480213  14.6563447  17.6406634  64.5629835  14.6526992
  26.3759685  76.5110111  32.5466871  26.1507130  76.8749666  31.6905165
  27.0711112  77.0817566  32.8741932  69.2524377  20.1508443  89.5541618
  68.7859694  20.9666936  89.3724346  68.6053077  19.5971506  89.9910602
  25.0962090  73.4960604  26.0859895  26.0323739  73.5926628  25.9113526
  25.0030279  73.7057781  27.0152712  46.1346436 102.7720356  36.9309402
  46.0702801 103.3484840  36.1695004  47.0668030 102.7655792  37.1483445
 111.2996528  41.4092748  78.5946346 110.9734366  42.2072999  78.1787241
 111.3680360  41.6336076  79.5226586  12.5688434  48.9492702  24.8149085
  12.6091171  49.6848678  25.4260612  13.3978487  48.9884471  24.3379951
   5.8053973   3.7550353  40.0428629   5.3289130   3.1064796  40.5610943
   6.2684920   3.2402419  39.3819904  57.0211554  28.8430309  45.4019594
  56.2816180  29.0024757  44.8155355  57.6713372  28.4039592  44.8535872
 112.2917823  70.9225512   5.3182000 113.2292704  70.9946537   5.4975015
 112.2001964  70.0911617   4.8527583  34.8961425  82.1630478  26.6296291
  34.4235134  81.7468357  25.9087825  35.7750273  81.7860222  26.5891218
  89.1135739  71.4554214   2.7842122  89.0720008  71.8026972   3.6752251
  88.7708734  70.5647326   2.8580692  20.7401156  72.5742817  39.2811728
  20.4778409  73.3734751  39.7380519  20.9997487  72.8712130  38.4090185
  49.4162416  99.8015785   2.1853922  49.3591499 100.0574303   3.1059968
  50.2252102 100.2073860   1.8737487  28.0132818  82.6324940  16.7102385
  27.4385786  81.9090939  16.9605076  27.4175692  83.3182716  16.4084685
  71.9651270  80.8946323  18.3527017  71.6070938  80.6602764  19.2089283
  72.9127884  80.8108330  18.4582770   9.3308604  94.8939228  30.6326747
   8.5980982  94.3399525  30.3635812   9.6566826  94.4868565  31.4354014
 104.2731259  52.1590059  79.5012784 104.6190665  52.6981752  80.2125180
 104.7781751  51.3472764  79.5486296  44.0306664  63.0868053  34.2567301
  43.4957361  62.3319244  34.0112996  44.8482847  62.9682922  33.7733150
 110.3971884  90.5863683  85.7465870 110.7125161  89.6844308  85.8040428
 110.4900072  90.8140771  84.8215103 103.0879805  11.6785734  91.9406428
 102.8242824  11.0674160  91.2527587 103.1806657  11.1339157  92.7223005
  55.5340908  40.3464048  87.7062777  55.9941349  40.0904195  86.9068659
  54.6266506  40.0816553  87.5556326  40.5255268  38.5764329  73.3249212
  41.4186857  38.8577192  73.1264925  40.2045772  39.2235391  73.9529932
  30.0742824   5.6798744   1.9266677  29.2934216   5.4138851   1.4411409
  29.9489034   5.3126430   2.8016847  34.6969033   9.9976158  15.7584345
  35.5123145  10.4979419  15.7902110  34.9203811   9.1506671  16.1443949
  33.4180511  22.0947074  28.2529163  33.6642266  21.1791706  28.3849549
  34.1080860  22.5936984  28.6900473  35.6786251  94.5242691  34.5810723
  36.2182379  95.1229382  35.0974536  34.8528123  94.4707489  35.0621176
 101.8818710  46.4098375  80.0822425 102.4684379  47.1421926  79.8929799
 101.5004990  46.1830537  79.2340935  86.3791356  13.9947193  82.2980333
  87.3120401  14.1170948  82.4739421  86.1674688  13.1534164  82.7025587
  41.4074564  72.9483747  22.9385591  40.8403540  73.6758852  22.6829243
  41.2587452  72.2816944  22.2679949  65.8556558  23.7531566  41.2602520
  66.1712886  24.2411708  40.4996967  65.1637865  23.1900215  40.9132195
  22.0806432  83.9001083  32.6882505  21.3689661  84.3553448  32.2382331
  21.6524720  83.1715870  33.1378651  12.9530263  70.3121424  40.4000092
  12.7238894  69.4295502  40.1088762  13.8824058  70.4003572  40.1885748
  23.1877208 105.2626228  36.6910791  22.5595522 105.7844448  36.1917400
  23.1082654 104.3804264  36.3282442 105.1937959  33.2362955  89.5594043
 105.4126618  33.7471597  88.7800780 104.7547147  32.4567239  89.2192477
  34.3105507  97.2101021  18.8523614  33.7827253  97.3543262  18.0669749
  33.8574958  97.6999187  19.5386970  11.6468143  50.9076834  10.4017496
  12.2284937  50.2238989  10.0695980  12.1935439  51.6927433  10.4332781
  15.0471234  89.7190857  25.2040076  14.7467268  88.8281059  25.3833055
  15.1445162  90.1175976  26.0688424 100.1516615  92.4137115  46.7083168
  99.3753587  91.8772888  46.5475750 100.0936948  93.1183338  46.0630465
  21.7527818  33.5503881  85.8298225  21.2884187  33.2041471  86.5918684
  22.6681756  33.5933607  86.1063046  89.3788098  88.7521458  43.6684847
  90.0236343  89.4524765  43.7683439  88.5496305  89.2085934  43.5258198
  34.7787952  89.4716454   1.3584204  35.3307343  89.1163349   2.0550907
  35.3705668  90.0142479   0.8372413  55.1959504   0.4283046  11.3775194
  54.4601441   0.4333019  11.9897258  55.9669782   0.3030776  11.9307530
  35.1851916  87.9491043  25.0147700  34.8762655  87.4988174  25.8009243
  35.8583212  87.3706245  24.6563196  29.6841311  68.6889076  22.0778918
  30.1237869  67.8935766  22.3785210  28.9386654  68.7888622  22.6699400
   9.4789887  36.0400962   7.3221046   9.9577952  36.1949348   6.5078562
   8.5674764  36.2354564   7.1048170  26.7799306  72.4354649   7.7447987
  27.6088500  71.9569540   7.7322626  26.1179209  71.7729568   7.5471622
  18.4988809  66.8356562  45.5645037  17.7818823  67.0349026  44.9624681
  18.3163714  67.3679399  46.3388348  28.3142638  97.2048950  21.8234038
  28.9169836  96.7315578  21.2498951  28.6675262  97.0730686  22.7032089
  17.4542761  82.3586750  51.7649603  17.1347535  82.7921104  50.9735870
  17.3214698  81.4256763  51.5972710  39.1971612  67.4620342   0.5868170
  40.0216103  67.1246624   0.2365375  39.4503951  68.2324219   1.0953531
  98.6523244   9.0415256  86.6119165  98.0003331   8.5262029  86.1369610
  99.1334174   8.3981101  87.1322966  59.3291006  59.9507539  89.2583171
  58.8093040  59.5538824  88.5593602  58.9936564  60.8445089  89.3283055
   6.3086498  98.4461594   9.5314139   6.9600534  98.6388111   8.8570327
   6.7164254  97.7695847  10.0719714 100.3221939  57.4770944  69.2354429
 100.7762406  57.8552263  69.9884975 100.2434108  56.5466135  69.4457281
  25.5252350   9.7364330  38.2053685  24.8998237   9.6310424  37.4884415
  25.2641857   9.0783786  38.8496113  14.7297168  74.1037655  13.7832093
  15.1787114  74.8783445  14.1218209  14.9627948  74.0783739  12.8551674
  80.3750945   6.5640926  29.0223908  79.4653560   6.8064975  29.1951513
  80.8352948   6.7645740  29.8374104  94.4603691  42.5342672  88.2198370
  95.3879283  42.3263185  88.3322010  94.2223284  43.0061929  89.0178687
   8.2570571  77.8339720  12.9386473   8.2117355  78.6816692  13.3809030
   8.7525952  78.0075598  12.1383095  12.8402567  72.8459740   3.9453754
  13.5284209  72.2155094   4.1579103  12.0252323  72.3927021   4.1610435
  59.1034699  12.4935722  68.3739567  58.6303664  11.7510795  67.9983139
  58.8575888  13.2373237  67.8238583  68.6158062   1.0990905  19.6540225
  68.6478496   0.7998275  20.5626750  69.5339061   1.1700344  19.3927014
  65.2144051  85.8884907  51.6424131  64.5863342  86.5803719  51.8499374
  65.4394388  86.0369015  50.7239532  51.2612367  26.5321731  69.2756796
  52.1557344  26.2578487  69.4777966  50.9773172  27.0143222  70.0523090
  78.6876631  93.3720303  23.6322713  79.4635820  92.8485584  23.8326812
  78.1436777  93.3040714  24.4169331   8.8493472  96.2999725  23.1010962
   9.5910984  95.7139111  22.9508662   9.0603042  96.7482090  23.9201283
  51.9583810   8.3525943   3.3022803  52.0095445   8.2620525   2.3507467
  51.6398621   9.2444896   3.4412256  52.1701908  98.2732391  20.2842879
  52.6502419  97.6183796  19.7773921  52.5505257  98.2233143  21.1612630
  52.4084806 103.8498592   1.2275826  53.0598831 104.4970512   1.4978610
  52.3177767 103.9810753   0.2837669  40.3681136  23.8815498  53.3058786
  40.6148351  23.4341812  54.1153383  39.5224590  24.2843341  53.5030174
  78.2652856  17.3207569  24.2507195  77.9203320  16.9545841  23.4363747
  77.8572322  16.7973232  24.9404573  53.8051630  11.9926071   8.9017922
  53.4612251  11.4250755   8.2119769  53.4536827  12.8589820   8.6966032
  28.7437916 101.8797684  42.1890354  29.0300059 102.7736759  42.3767996
  28.4723330 101.5318012  43.0384254  86.6226909  74.3900697  85.8305669
  86.0180233  74.2374914  85.1043934  87.3040400  74.9516504  85.4609400
  41.3754034  94.7726727  39.5267057  41.0705280  94.7103596  38.6214972
  41.7744160  95.6407261  39.5858359  45.4847813  89.9646187  54.1347408
  46.1871386  90.6142139  54.1656446  44.7377443  90.3998566  54.5455027
  78.0584652  12.2817771  80.9162224  77.4602538  12.9792755  80.6481326
  77.5493804  11.4775341  80.8149302  54.0563167  -0.1242257   6.8089360
  54.6326578   0.3649520   6.2217677  53.7127186   0.5352973   7.4115896
  36.1617541  80.3010464  32.2836804  35.6715512  80.6942558  31.5616584
  36.3205528  79.3999195  32.0026398  37.0127439  82.8656673  36.4984107
  37.6643467  83.5083294  36.2179828  36.5887141  82.5850010  35.6874537
 100.7089350  25.7199066  73.7224579  99.8122642  25.4216163  73.8748956
 101.0819027  25.0654857  73.1318105  93.3432482  88.4860802  34.1294646
  92.9226254  88.3365726  33.2827330  92.6202200  88.5023785  34.7565198
  83.6210559  82.0576572  43.6342716  82.7500056  81.9426823  44.0141201
  84.1529988  82.3980522  44.3535805 101.9101034  66.9242859  23.6336422
 102.6002632  67.0511103  22.9826212 101.6237770  67.8104544  23.8548899
  54.1751012 104.9836701  64.6294511  54.3324134 104.6306389  65.5051554
  54.7796830 104.5020359  64.0648783  43.5674143  85.7164383  13.3024168
  43.3733273  86.6001034  12.9898655  43.7190914  85.2084255  12.5054538
  73.2687212   1.0388374  17.6622748  72.7151776   1.0367679  16.8813670
  73.8585997   0.2950286  17.5396907  17.8791535  90.0673866  54.2872381
  18.4924722  90.3031254  54.9832964  17.4911571  90.8999062  54.0177822
  59.4336224  86.3740063  21.5234113  59.0451431  85.5154610  21.6914010
  58.7090969  86.9900894  21.6317844  11.5205753  70.3393888  46.0205936
  10.9974933  71.0643959  46.3626194  10.8895183  69.7835827  45.5633450
  86.1686573  49.3778532  85.9696514  86.2915573  48.4641950  86.2272573
  85.2209750  49.4750135  85.8764315  37.3619080  64.2716789  27.7397561
  37.4860382  63.7214279  26.9664240  38.0148864  63.9570141  28.3649230
   0.7582573  74.1712284  71.9925737   0.2286955  74.7734737  71.4699841
   1.0340960  74.6892548  72.7487421  46.3740683  32.9756545  57.1064520
  46.1549587  33.6008262  57.7973795  45.8000172  33.2127094  56.3780928
  93.0410943  33.8681428  86.6583366  92.3990474  33.6226766  85.9921855
  92.5516198  33.8505571  87.4807340   3.4929055  70.5922079  13.9705908
   2.6603219  70.3844452  13.5464787   3.9800066  71.0876751  13.3122003
  55.1114453   5.7232665  41.8363905  55.3020991   6.6328716  41.6072416
  55.4529453   5.2144050  41.1010885  64.7657085  29.7024249  37.8422499
  65.1031662  29.3847656  38.6797762  65.3406621  30.4328441  37.6138854
  60.6968498  97.0325470  35.9707117  59.9568033  97.5651169  35.6792665
  60.5912113  96.2016773  35.5073237  41.3502736   3.2666397  18.8741946
  41.9363029   3.9152240  18.4841406  41.9277210   2.6971626  19.3825984
  55.8272470   2.8619766   7.8047210  56.4734877   3.1508445   8.4490478
  56.3109148   2.8270816   6.9794464   6.8347596  18.7811248  62.5510824
   7.3260497  19.4443195  62.0662749   6.0209989  18.6776655  62.0578063
  30.1712941  73.8039892  86.2854159  30.9179973  73.5664575  85.7356495
  30.2816438  73.2798974  87.0787490  11.5286517  41.5441322  43.6790705
  10.8259976  41.4957714  43.0308628  11.5315485  42.4587536  43.9613771
  30.6984305  94.8093128  25.7813191  31.2436867  94.9398136  26.5571404
  30.5390382  93.8658047  25.7565379  41.1930466  91.7697620  24.9325967
  40.4041147  91.8354797  24.3945456  41.9097185  91.7116165  24.3007493
  39.5061517  94.9590588   2.2571401  39.5090628  95.2637482   1.3497315
  38.5803056  94.8316574   2.4640457  66.8401003  62.7064800  17.6161742
  66.7843390  62.5633717  18.5609722  67.5249195  62.1054459  17.3228967
  52.5044966  99.2597961  10.0152659  52.0282221  98.5092831  10.3704178
  52.0486403  99.4687271   9.1999316  84.0197659   5.5890846   6.0645753
  83.4123040   5.5499076   6.8032813  83.5780574   5.1071071   5.3654236
  71.6595078  12.1644401  48.7507486  70.9600330  12.7403163  49.0595150
  72.4671698  12.6182651  48.9914799   0.7232474  49.1747015  87.2426039
   0.0334906  49.8333948  87.1614445   0.3062224  48.4467428  87.7034772
  58.3060480  30.1369762  12.3390377  57.8036953  30.7367896  12.8904831
  59.2199326  30.3706741  12.5016189  24.5881986  37.3643796  83.5419453
  24.7239255  38.0566328  84.1889310  24.7773790  37.7816026  82.7014882
  38.3156228  96.8938446   7.4453115  38.8664103  97.2978878   8.1158471
  38.1314731  96.0172749   7.7828592 101.7495105  48.8544481  82.5470966
 102.6759908  48.6919229  82.7244366 101.5941641  48.4487932  81.6941333
  41.7589474  88.1541824  26.0443997  41.8240023  88.9777184  25.5608869
  40.9648848  87.7400970  25.7064295  51.5590347  10.5793189  57.5572920
  50.7378281  10.1947879  57.2507191  51.8280280  10.0200557  58.2860518
  77.4123733  50.5536573  84.9216575  78.3335794  50.4142969  85.1411754
  77.1571366  49.7629659  84.4463814  94.9251366  14.1899967  32.6135683
  94.1254283  13.7746429  32.2907996  95.1911689  13.6509132  33.3584499
  92.3569966   5.3163242  50.9216547  92.3367167   6.0723304  51.5084076
  91.4367152   5.1403999  50.7257891  72.6259542   5.0886821  46.2205362
  71.6877962   5.1317405  46.4055729  73.0044437   5.8019828  46.7345142
  86.8984366  12.6574230   1.5124635  86.6280509  11.8778705   1.9976661
  86.0973216  13.1735610   1.4227736  34.1532350  88.1350231   3.9935002
  34.0113235  87.3010445   3.5456455  35.1051450  88.2159328   4.0531144
 104.1824172  46.6368692  87.6415673 103.9463828  45.7830064  87.2790128
 105.1279352  46.7011182  87.5070316  14.1349696  46.7200487  76.8929828
  13.6185359  46.7911165  77.6957751  13.6149835  47.1777170  76.2323845
  16.6037166  93.1494522  17.2148907  16.3466835  93.5958958  16.4081335
  16.2268198  92.2732735  17.1342933  10.0668347  87.3968220  14.3370211
  10.7066929  87.2073269  15.0232470   9.9973685  86.5803623  13.8422489
  55.9818649  61.7974043   4.5564711  55.6595278  61.0597086   5.0742888
  55.8889818  62.5545979   5.1346254  12.5556195  99.1790199  51.8492031
  12.1735108 100.0211239  52.0963573  12.4008405  98.6143017  52.6064157
  13.2711494 101.7138958   4.8529452  13.1328130 101.2347698   4.0359145
  12.7122450 102.4870300   4.7747961  43.3935690  74.6080446  38.9593792
  43.7099409  74.8510027  38.0892563  43.6547947  73.6929512  39.0623260
   7.9053026  75.5276823  25.7677150   7.7087796  75.5241013  26.7045164
   7.7312928  74.6305037  25.4830575  26.1492442  52.2305505  78.2709194
  26.6708469  52.8184621  78.8172984  26.4243364  52.4284856  77.3757220
  35.1995063  52.8263998  19.1913640  34.5348835  53.3852530  18.7886405
  34.7375321  52.0129919  19.3942869  56.7875385  92.5367928   8.7500668
  56.9198990  93.2001972   8.0728662  57.4652100  92.7201939   9.4007277
   9.9219763  99.9575138  37.9789734   9.2791724 100.2748680  37.3446822
  10.7378745 100.3923988  37.7311516  44.7623432  14.7003650  23.3062601
  45.3162671  14.0417098  22.8872514  44.0221668  14.2038822  23.6553597
  83.7309144  73.4435797  54.8773670  83.5656236  73.9819765  55.6513405
  84.2990516  72.7402782  55.1917219  68.4408975  11.1190986  37.9396057
  68.1279946  10.5990314  38.6797786  68.0594374  10.6952476  37.1707964
  79.8500825  11.8611431   6.4577687  80.2675105  11.6482734   7.2924376
  80.2487470  11.2584590   5.8300143  46.3764047  52.7195566  77.9100943
  46.2260961  52.3803632  78.7924671  46.8471193  53.5417764  78.0465305
  97.6382590   4.3217945  42.7410793  97.3055077   5.1937389  42.9537249
  97.6196242   3.8488483  43.5730696  84.8408508  89.5229721  12.6011848
  84.2091751  88.8730621  12.2932291  85.5099869  89.5494652  11.9172347
  86.1496878  12.3687648  11.9530761  87.0780898  12.1388149  11.9908643
  86.1030007  13.2414340  12.3435974  59.3585110 101.7999649  35.8250785
  59.1996670 101.8435097  34.8821545  59.7490406 102.6466370  36.0415292
  73.3469915  76.7747307  24.2630100  73.8226604  75.9443998  24.2858553
  73.1027699  76.8856478  23.3441615  16.2216008  66.1308146  48.9830542
  16.7515433  65.4251289  48.6123753  16.6978502  66.9305706  48.7598658
  97.5900412   2.9359435  17.0089495  98.0441953   2.0996189  17.1115482
  98.2856131   3.5924339  17.0467877  58.3243204   3.0825900  28.8372731
  58.1559921   3.8904762  28.3522725  59.0730477   2.6869392  28.3910656
  46.8115520  86.3916206  40.3311920  46.5368652  87.1022320  40.9106874
  47.7678013  86.4058590  40.3713846  75.8368492  93.2341194  19.5284772
  76.0455370  92.5171566  18.9296138  76.4798164  93.9127636  19.3228757
  73.8395596  91.0171890   8.3972245  73.7213087  91.8995476   8.7489408
  74.3286514  91.1468029   7.5846839  53.6096430  89.4568539   3.0891982
  54.0355778  89.7707081   3.8868871  53.1803226  90.2315617   2.7262199
  57.2618473  27.5781917  12.3396587  57.5694025  28.4844970  12.3240197
  57.2415913  27.3162174  11.4192271 112.6263163  28.1408136  67.1610296
 112.9926608  27.3238008  66.8226230 111.8280385  28.2750623  66.6501868
  38.5103368  38.7267702  67.9043472  37.5926303  38.9052217  67.6989234
  38.4800243  37.9932611  68.5185755  41.9479227  95.1475143  36.5132594
  42.8864574  95.1238155  36.3266397  41.6581249  95.9954166  36.1766458
   3.8821653  61.8718243  18.3242321   4.6852279  61.3742256  18.1702244
   4.1014522  62.7667379  18.0648577  70.8498574  16.3089656  17.2872162
  70.0096155  16.7267990  17.4760091  71.0738397  15.8459377  18.0944777
  21.5200779 100.0284594  81.7003358  22.0509800 100.5311173  81.0825098
  20.7394430 100.5651920  81.8372917  10.7873094  54.8035812  35.4855609
  10.6076908  55.4533291  36.1651206  11.6981506  54.5486975  35.6326485
  69.4484851  77.5888365  91.5961879  69.1397521  77.4788302  92.4955291
  69.8426506  76.7454856  91.3734217 104.9998234  57.8014326   8.5560602
 105.8705829  58.0864382   8.2789689 104.5493261  57.5808048   7.7408254
 112.9333832   7.2440660  53.4854174 113.6013068   7.9110980  53.6440945
 112.1356459   7.6077884  53.8695431  25.9682986 105.1921623  85.7375622
  26.8182584 105.0815838  86.1636764  26.1382171 105.8007210  85.0185240
  30.1977158  31.8600678   1.9108890  30.1122189  32.5583577   2.5599778
  31.1410832  31.7762947   1.7720696   7.8100365  84.6080875  30.9297252
   8.1912529  84.5866013  31.8074751   7.2478282  85.3827858  30.9316707
  73.6596049  32.2000616  78.1688869  72.8167162  31.9521539  78.5487688
  73.4737446  32.9977911  77.6735890 104.0262608  81.9189358  37.1963811
 104.8698609  81.6387749  36.8413091 103.9963649  82.8607178  37.0279169
  18.9278603  73.2617092   7.0544046  18.7208092  72.6811314   6.3220835
  19.8761714  73.3817673   7.0041645  16.5971458  49.6090269  19.0571332
  17.3157978  49.4917440  18.4358323  15.9273541  50.0809956  18.5623002
  62.9351711  64.5715332   4.0566447  63.3129644  64.9961138   3.2864273
  63.4000587  63.7374067   4.1225192  81.3238112   1.3901393  88.4889630
  81.9937453   1.0091751  87.9212621  81.7664168   2.1168058  88.9274720
  92.7595053   2.2028272  75.0737524  93.0044100   3.1279438  75.0534273
  92.0648382   2.1245401  74.4198871   7.2864693   0.9214465   3.0645311
   8.2058871   1.1713530   2.9726085   7.2108316   0.1023123   2.5751132
  95.0534092  48.1835413  22.9045844  95.9063421  47.8699923  23.2052922
  95.1662956  49.1291332  22.8079557  96.1414920  45.7214165   8.5750270
  96.4407490  46.6194582   8.7171412  96.1356066  45.6186867   7.6233733
  19.4185495  13.7470405  91.8503616  19.2912625  13.1496160  91.1133963
  19.4584417  13.1759613  92.6175052  86.4550123  47.8193872  90.2415356
  86.0991249  47.0785539  89.7508830  85.9106920  48.5625665  89.9814809
  58.4374831  19.0874403  62.8210557  57.9473076  19.7650259  62.3553980
  57.8443692  18.7958686  63.5134662  36.3702822  25.2077317  15.0987113
  37.0237827  25.5928230  15.6825566  36.8839121  24.7669768  14.4218433
  40.8782959  53.8822842   8.3686703  41.0962486  54.8130131   8.3189261
  41.7077303  53.4529257   8.5782343  33.0974460  53.8681316  18.0836773
  32.3793793  53.2620382  17.9012859  32.6644349  54.6906281  18.3122206
   9.7975314  93.9116192  13.9325881   9.8851448  94.8584938  13.8231206
   8.9017528  93.7202549  13.6547494  87.9747912  98.6878937  71.5664280
  87.4006268  98.7751501  70.8055365  87.5757500  97.9923122  72.0890797
  98.8430069  89.3952560  48.8746405  99.7502945  89.1501427  48.6930418
  98.9074133  90.0633907  49.5570517  69.1163800  26.8579595  79.4668806
  68.1997279  26.6109769  79.3444956  69.5139513  26.0991018  79.8938465
 102.3219226  85.0962543  10.4076493 102.1273385  85.9775162  10.7266283
 103.2311116  85.1438236  10.1121104  43.8993454  55.7538319   4.7645140
  44.3401957  54.9784994   4.4170284  42.9899931  55.6595755   4.4809100
   0.7049769  45.0550985   4.1574362   1.0282621  45.1141644   5.0564522
  -0.1830939  44.7087240   4.2445293  98.7463281   7.9755704  70.9045184
  98.4981034   8.1055801  69.9892509  99.4699428   8.5860984  71.0454786
 107.5951645  15.8339231  79.1867721 107.4584100  15.9675615  78.2488644
 107.8202794  14.9069755  79.2663110  48.0494881  93.4623718  18.8016188
  48.0721188  93.8279724  17.9172766  47.1174622  93.3934498  19.0085196
  19.8502731  62.1941090  13.7750876  20.4017401  61.4133501  13.8253915
  18.9713597  61.8559122  13.6037219   5.4524702  83.9366436   9.7755957
   5.5435890  83.0672646  10.1656151   6.0519427  83.9284229   9.0294075
  93.4607397  43.6107874  16.3813746  94.0975390  42.9475689  16.6475713
  93.0456327  43.2444859  15.6005168  20.7426834  59.6693611  14.3061268
  21.1338615  59.1299963  14.9933660  20.0353169  59.1303349  13.9521229
 110.7551892  51.8786383  20.9930253 111.5773204  52.3627043  20.9154677
 110.8254471  51.4198256  21.8301535 100.5756973  44.9143171   5.7836026
 100.8298181  44.2986774   5.0961131 100.1802884  45.6484270   5.3135324
  96.8669461  32.0466995  16.7500675  97.5831686  32.6322079  16.5042329
  97.1324025  31.6855288  17.5958335  11.0987090   8.9421098  86.8629945
  11.4003657   9.4008415  86.0789019  10.3893899   8.3790414  86.5530724
  15.1777518  90.8958530  16.8471968  14.9985206  90.2228642  16.1905432
  14.4705951  90.8020782  17.4854517  17.3357081  57.1074533   5.0341219
  18.0649555  57.7134228   4.9028480  17.2003984  56.7060041   4.1757739
  92.6012645   9.9131792  91.8051102  92.4235711  10.2207391  92.6939651
  93.4159205  10.3510826  91.5585195  15.3031409  52.3216867   6.6025555
  15.0960147  53.2545185   6.6587597  14.4730544  51.9056177   6.3700241
  98.5783206  38.7258291  11.6833103  98.5491739  38.3916807  10.7868028
  99.5119010  38.7921929  11.8839502  36.1240292  97.4948597  33.8665915
  35.5232620  96.7771149  33.6662221  36.5859056  97.2077847  34.6543002
  10.9856308  76.5423107  13.3710086  10.8898234  75.9787846  14.1387892
  10.1476252  76.4692783  12.9142320  15.5539155  55.0292826   2.9918650
  16.1403930  55.6325912   2.5354737  14.6753132  55.3529024   2.7929604
  26.3881135  51.7263222  14.9432480  27.0903492  51.2437868  14.5070612
  26.6958141  51.8359137  15.8429933  55.5221319  42.1350765   5.0344944
  55.5698729  41.1984968   4.8427346  56.3304996  42.3234606   5.5112392
  46.3905969  94.1277187  88.8985578  46.4655879  93.1848877  88.7513224
  47.2663483  94.3973129  89.1753432  82.4757460  12.4294059  88.1364644
  82.9410098  11.6083591  87.9763219  81.9039009  12.5329368  87.3758692
   4.6121501  20.8458822  77.9717481   4.1682004  20.8375423  77.1237684
   4.0912151  20.2597015  78.5206068  80.5943362  19.6834056  65.3359163
  81.0806719  20.3581254  65.8096922  80.9238622  18.8574331  65.6900490
  26.4199325  97.7520960  88.5381916  25.7518849  98.2870930  88.1095645
  26.9433626  98.3780830  89.0385887 112.3013101   1.3849401  15.7223797
 111.4341576   1.1044135  16.0149252 112.2813620   1.2727417  14.7719872
  22.2524261  54.7422552   1.3703287  22.7097416  53.9311361   1.5921104
  21.8814731  54.5786619   0.5032282  30.3487372  34.3607473   8.3369154
  31.1898732  34.2370915   8.7767249  30.1162505  35.2717686   8.5164148
  30.0924063  74.5224667  20.7760286  31.0253572  74.7214937  20.8549309
  30.0655937  73.6085701  20.4926586  43.1108046 103.8639927  18.1351590
  43.7075758 104.5171165  17.7697408  42.8885269 103.3011341  17.3935318
  34.0997577  99.8474407  23.2373476  34.3440151  98.9752293  23.5468817
  33.8826060 100.3320885  24.0337086  63.0419255   1.4246749  39.3064976
  63.3329702   0.9042644  38.5576987  63.5974623   1.1347675  40.0300789
  28.7488675  96.4432049  24.4248271  28.5889578  97.1823692  25.0116014
  29.3750525  95.8940315  24.8965597 100.9426687  54.1358583  85.8289993
 100.3457449  53.5181348  85.4067010 100.9220550  54.9107854  85.2674890
 108.7416766  32.7096002  73.9956367 109.5620105  32.3787706  73.6298049
 109.0133784  33.2905595  74.7061956 107.0324813  63.5988140  14.7759461
 107.3675363  64.3718958  14.3217289 106.4582805  63.9507580  15.4561377
  23.0972123  55.7883215   4.1261965  23.6815405  56.5385437   4.2355478
  22.9239726  55.7547903   3.1854010   9.3658245  81.3476276  11.2778533
   9.6652335  82.1562195  11.6934991   8.7789750  80.9505749  11.9214296
 110.4534183  44.6205568  19.4529855 110.1388238  45.2292681  18.7846053
 111.3587497  44.4366693  19.2024016  27.4812531  63.1500530  20.6109643
  27.7627540  63.7375069  19.9096191  26.9052863  63.6863232  21.1558580
 110.6942198  12.4976366  54.0953553 109.8150656  12.2481697  54.3801105
 110.7927034  12.0883243  53.2357061  71.7800686  97.1484964  88.0749795
  72.2019216  96.8768805  87.2598124  71.9035002  98.0972641  88.1039685
  35.3079319  33.4638190  24.0714741  35.4192758  33.1895900  23.1611800
  36.0641408  34.0237451  24.2471457 109.8380111  94.1873932  13.6991692
 109.2794682  94.8840523  14.0440238 110.4050373  93.9497566  14.4328177
  29.2317963  85.6297207   5.9198332  28.5580873  86.2349510   5.6099212
  30.0163054  86.1706161   6.0104799   3.9969581  73.8548422   3.6520246
   4.6678957  73.1730080   3.6863723   3.6009866  73.7578106   2.7859855
  41.0314941  60.4277992   9.2632180  40.9839296  60.9447670   8.4590322
  41.8753529  59.9791431   9.2099774 100.2186272  14.6178548  45.2597034
 100.0650022  15.5583446  45.3497207 100.8168123  14.4032876  45.9755075
  27.8829098  91.6725445  27.2977972  27.1216512  92.0335579  26.8434954
  28.1002903  92.3289013  27.9597497  10.9028804  65.9900570   9.5231199
  11.1856925  65.4851723  10.2855778  11.3353062  65.5665350   8.7815887
  80.4791546  72.0432234   4.7489783  80.8679008  72.9149914   4.8206311
  80.3238773  71.7750454   5.6546271  44.0182877  86.0730362  39.7162223
  44.9752092  86.0947514  39.7082520  43.7993383  85.1429462  39.6593666
  90.9900854  44.3731706  92.1558661  90.9866939  43.4589498  91.8723090
  91.9001946  44.6519296  92.0547413   6.4042640  46.7559814  18.8974512
   6.8313235  46.0290337  18.4442437   6.2215817  46.4175606  19.7739971
  48.4921885  55.5791092  10.0740075  48.9318132  54.8700142   9.6048117
  49.0219259  56.3542414   9.8875195   1.8569254  21.8366067  79.4227767
   2.3779344  21.0660236  79.6485782   2.4919700  22.4603527  79.0707970
  33.5369158  68.2558298  27.2892404  33.4182477  67.8774977  28.1604552
  33.1654024  67.6055765  26.6931057  76.9891499  78.2595110   5.1340955
  76.7087053  77.7546644   5.8974522  76.3242100  78.9416790   5.0406253
   9.2988347  36.5798109  81.4176321   9.6269750  36.6409128  82.3147512
   9.1195916  35.6480901  81.2911046 108.6578581  23.3504837  75.9655559
 107.8887079  23.5367458  76.5040207 109.3120644  23.9868562  76.2541318
  84.7710488  25.3888624  85.7429570  85.3523532  26.0849922  86.0490936
  85.1376668  24.5882957  86.1183489 101.7300913  56.1145990  83.7908948
 102.0000265  56.2111394  82.8776336 101.6746733  57.0115964  84.1203714
  21.1973071  70.7791567  22.5469851  20.4105949  70.9394169  22.0258021
  20.9852386  71.1258936  23.4136057  14.7085559  86.7813396   0.8187552
  15.0950968  86.5879250  -0.0353001  15.0462949  86.0959244   1.3952719
  59.7409725  19.6419466  26.4312434  59.5713568  18.8155782  26.8835473
  59.8842478  19.3905652  25.5188227  19.4542146  66.7331791  51.7939091
  18.9839363  67.5574493  51.6688061  18.8296437  66.1676359  52.2481108
  37.0508742  81.0890293   5.9553307  37.6901913  80.8891010   6.6390961
  37.3317409  80.5659676   5.2044928  17.5955582  53.7633276  33.0986190
  16.6990900  53.8100052  32.7663565  17.6589298  52.8946400  33.4956050
   0.2049938  53.0494595   3.8352817   0.8050199  53.1424713   3.0953157
   0.4191465  52.1957207   4.2114505   5.8867013  56.8170404  10.6442451
   5.8199567  56.5965748   9.7151750   6.5449929  56.2126350  10.9871411
  23.5677385  97.8866577  36.2167072  24.2001152  98.4741020  36.6305184
  23.8107896  97.8869247  35.2908802  22.4892377  10.4459541  86.5995878
  22.5258254   9.6558301  87.1386630  23.3783244  10.5449502  86.2590617
   7.6938456  53.6127472  11.4303362   7.6162958  54.2235613  10.6974483
   8.2837969  52.9297256  11.1114776  36.1424732  58.7487793   6.9378823
  36.0277247  57.8164196   7.1216547  36.8845701  59.0107393   7.4827683
   7.5438774 104.9650860  23.1793404   7.4466854 104.7151566  24.0982080
   7.6618379 105.9147549  23.2006264  31.8644023  83.5591698  22.0100069
  31.4101529  84.3593407  22.2738576  31.1665344  82.9728794  21.7176318
 107.6774046  53.6782091  91.7630307 107.9706357  52.8396623  92.1195295
 106.7875407  53.5089033  91.4536552  81.0698572  23.1596344  64.9677360
  81.8652526  23.4413402  64.5158303  81.3809112  22.5715368  65.6559360
  16.8510878  53.0791283  24.8371959  16.9083238  52.5943136  24.0138435
  16.9435656  53.9969349  24.5816398  79.7945697  43.7000577  86.9058651
  79.0476636  43.8638132  87.4816686  80.5234039  43.5280149  87.5020451
   3.6335102  43.7699795   4.2457655   2.9031843  43.6274815   4.8478878
   3.3058029  43.4723377   3.3970904  90.3151832  28.4226720  79.1943074
  91.2284193  28.1912057  79.0250218  90.0107775  28.8117521  78.3744419
  16.6104996 102.3199368  21.7234969  16.3986027 101.4926338  21.2911677
  16.7474818 102.9374218  21.0050392  29.9336386  48.9125204  14.7197056
  29.6450996  49.8234415  14.6631765  30.8313036  48.9245749  14.3876171
  43.2442522 103.7455559  11.6614866  42.9716635 104.3012810  12.3916256
  42.4365950 103.5722637  11.1778581  42.4674082  65.5375195   1.7686479
  42.4983168  64.9516487   2.5249743  43.2715225  65.3474474   1.2854247
  83.4332657  83.3207607   9.3339503  82.5680256  82.9118538   9.3540996
  83.2543755  84.2544746   9.2225349  38.9228868  15.6222837  83.5833603
  39.0914916  16.4404457  83.1160111  37.9895114  15.4578035  83.4492326
  91.9413123  25.9978406  86.6609478  92.3541484  26.1292951  85.8074153
  91.1238132  26.4931934  86.6104329  37.0911765  53.2295275  16.9381440
  36.3735676  53.2529402  17.5711691  36.8706107  52.5050449  16.3527334
  85.7340810   7.9206865  80.9431708  85.9598074   7.3216693  81.6548288
  86.5503392   8.3819835  80.7503999  13.9835357  46.3062875  72.8649307
  13.3445071  46.3277929  73.5772598  13.6702775  46.9623296  72.2422612
  36.6998816  83.5013103   7.7470261  37.0275211  83.7778473   8.6028337
  37.2112489  84.0110779   7.1186388  84.0542934  47.6905744  79.9773705
  84.1439132  47.9366701  80.8980441  83.5830519  46.8576353  79.9968696
  15.2420091   8.2961528  66.4170540  15.9687566   8.8647811  66.1626327
  15.5017900   7.4258058  66.1149967  15.2257836  54.7200394   9.5759052
  15.1947975  55.1831627   8.7387729  16.1596978  54.6308041   9.7658342
 105.8827697  52.9230404   0.9382524 105.2957968  53.6565256   1.1218154
 105.7579552  52.7438259   0.0063000  36.4943314  34.5672822  31.9748044
  36.5684414  33.7488627  32.4656510  37.1270061  35.1535821  32.3897815
 110.1200257  56.5064716  35.0702381 109.7652937  55.6637478  34.7870111
 110.9043136  56.6282129  34.5351648   8.6287069  31.0442846  83.0123449
   9.4740914  30.8329790  83.4084612   8.1953811  30.1973646  82.9065794
  52.6871157  77.6114607  12.4767637  52.4780703  78.4354496  12.9167342
  53.6434412  77.5714397  12.4850142  89.5851514  54.8413484  76.3629401
  89.9606130  54.6858041  77.2295797  89.4440017  53.9659421  76.0024250
  10.6286168  21.1617708   7.0114952  11.2785733  21.8026066   6.7231935
  10.3321719  20.7414937   6.2042034  20.7637057  85.5696695  90.3607813
  19.9243626  85.1106303  90.3288836  21.3662037  85.0007456  89.8816660
  15.4518926  56.0840464  31.0353494  15.2386868  55.1946402  31.3177204
  16.0726738  56.4012480  31.6912794  56.7248011  63.9641428  11.0731304
  57.6448917  64.0415716  10.8208013  56.4077139  64.8668194  11.1024928
 109.1121237  67.1897125  38.2835627 109.1872616  66.5892363  37.5419307
 109.9417482  67.6671124  38.2902098  38.2486176  65.8751440  17.1455836
  38.9545584  65.2511168  17.3143005  37.6020050  65.6955814  17.8281367
  33.6302066  72.8219032   3.4686157  34.4406533  72.3312855   3.3318624
  33.0273056  72.4768209   2.8100836  60.8203268  74.9644470  18.7739599
  60.0740480  75.2577400  18.2511985  60.5651379  75.1457310  19.6785283
  18.3851445  85.6762028  13.1035948  19.2666924  86.0367775  13.0082142
  18.5245514  84.7447872  13.2746565  93.7846371 105.6420057  82.4014604
  94.1421982 105.3669804  81.5572203  92.8585622 105.4037588  82.3584152
  20.8259472 101.9959801  70.8768452  20.2124652 102.3545187  71.5181887
  21.4239058 101.4557331  71.3933814  41.1030340  88.5548306  47.8278446
  40.4763556  88.0993938  47.2656250  41.9119501  88.0502129  47.7427340
   0.7354664  23.4805553  81.4265561  -0.1486946  23.2112710  81.6755057
   1.0950445  22.7236335  80.9639514  61.1720943  77.8505278  20.0001431
  60.6296825  77.8285170  19.2117679  60.9722948  77.0303059  20.4513097
  37.3802567  70.9094191   0.6321681  36.4544630  71.0109997   0.8531161
  37.5891018  71.6857862   0.1126795  95.1299000  21.9713378  41.8477726
  95.6052876  22.4313211  41.1559296  95.5237579  21.0992050  41.8699360
  24.3188953  29.2924898  83.7369812  24.8192786  29.4235246  82.9315764
  24.2202615  30.1712911  84.1033298   0.3856491  21.2136238  76.9982469
   0.5741166  21.2495868  77.9360199   0.8849262  20.4605405  76.6823113
 109.2027686  39.2196767  78.7804807 110.1511667  39.0918653  78.8014174
 109.0654681  39.8839967  78.1051553  45.6275797  49.9709034  21.6678905
  46.2548923  49.9650860  22.3908544  45.9807253  50.6105280  21.0495043
 105.3274009  25.1718681  67.0684469 104.6616719  25.8446138  66.9254387
 105.8498619  25.5033462  67.7987826 107.3858879  43.5756795  62.8515470
 107.3644636  43.1105249  63.6878527 106.4666865  43.7547128  62.6534379
  64.1464425   7.3465156  18.3741724  63.8654447   8.1052303  18.8856733
  65.0799967   7.2600269  18.5671091  35.6326246  94.4363117  21.2553906
  35.7877088  93.5809040  20.8548284  36.2079740  94.4504738  22.0202470
  13.9234138  44.2435884  18.5576642  14.1929400  43.3389902  18.7167096
  14.7438753  44.7353935  18.5230196 112.7127162  48.5382080   6.5846688
 112.1773104  48.1980181   7.3014981 113.1621942  47.7686739   6.2353599
 111.8307278  27.1137350  82.8133440 112.0422766  27.9721181  82.4463892
 111.9245217  27.2278326  83.7590796  66.5881440 105.3908461  89.7317681
  67.1212289 104.7103279  89.3207354  67.1048304 105.6776827  90.4847569
  47.3246002  33.9601922   7.1477127  47.3107719  34.3942571   6.2947017
  47.9101992  33.2127643   7.0266485  69.6321201 104.2566109  24.8754072
  69.5235634 103.4808922  24.3252182  70.3859138 104.7123623  24.5008135
 113.5202906  62.5613897  83.7342334 113.5657117  63.5163896  83.6879200
 112.6144168  62.3764245  83.9820516  45.1032877  72.4605513   7.1253395
  46.0415411  72.6286650   7.0378721  44.8470449  72.9376078   7.9146349
  12.6575326  17.5613468  74.0710092  12.0160865  18.0760257  74.5607853
  12.1903180  16.7607276  73.8323498   4.0250185  58.0770779  17.8312171
   3.8837343  57.1436405  17.6732063   4.9443144  58.2214928  17.6070058
  66.5902492 100.7699459  62.3490680  65.8102342 101.3212269  62.2866738
  66.3818309 100.1369494  63.0361665   3.1713086  85.1024532   5.5237526
   3.9455667  84.7007656   5.9179664   2.5609845  85.2123737   6.2528992
   7.2164857  85.4967213  22.9368901   7.3276019  86.3270569  23.3999658
   8.0708718  85.3277588  22.5397682  41.3259459 100.5273819  76.1911821
  40.8472443 100.0343704  75.5248404  42.1153402 100.0100899  76.3508654
  18.5600054  32.9056907   6.2978423  17.8445077  33.4397697   6.6428816
  19.0890169  32.6891208   7.0656157   7.7568483  32.0763414  60.5419481
   7.8724193  31.2691801  60.0405825   7.6935720  31.7861097  61.4518893
  24.0206337  58.8497448   7.7524781  24.3740487  58.4036207   8.5220915
  23.7464499  59.7072792   8.0775827 108.3900020  19.6744459  89.3775794
 107.5648544  19.8973339  89.8084933 108.2534525  19.9129837  88.4606904
  73.0676437   0.4517650  13.4326088  72.5258566  -0.2006341  12.9886806
  72.5353647   0.7408809  14.1737711  39.5092368  64.0915298  24.7799087
  38.6936903  63.6278915  24.9700499  40.1124334  63.4066248  24.4913030
  61.6416455  17.3194885   6.2360448  61.4701129  18.2591819   6.2974817
  61.8614221  17.0571899   7.1299851  28.2085061  54.2708969  17.5210023
  29.1241312  54.2446661  17.2431970  27.9354286  53.3535528  17.5328338
  39.9183893  67.3821831  20.4517746  39.0355754  67.6807308  20.2332783
  39.7979045  66.8158054  21.2139630   4.9384689  38.2298772  69.5112360
   4.6910190  37.4235742  69.0585983   5.4035281  38.7426107  68.8501346
  93.9276362   6.3234996  46.2103128  93.2246304   5.7356738  46.4868641
  94.0632106   6.9037914  46.9593859  55.4942656  77.7379560   1.7707893
  55.2004480  78.6255741   1.5657631  54.9279165  77.4583292   2.4900162
  41.3995838  80.8467007   5.9796882  42.2911072  81.0118008   6.2865496
  41.5009975  80.6353855   5.0516307  60.0110054 104.3372536  12.8245056
  59.4359207 104.4946289  12.0756757  59.7634935 103.4673500  13.1379330
 104.8839240  40.1661015  19.1254544 104.3452160  40.9572554  19.1354394
 105.7839690  40.4896593  19.0872157  31.3453841  78.7324667  27.7917242
  31.5336394  78.1472588  28.5254288  31.0683131  78.1492090  27.0851326
  53.7939358 101.2422466  20.9640431  53.5880709 100.9097004  20.0903940
  53.5535860 102.1681786  20.9306455  53.3234215  73.3063793  25.1552486
  52.7557087  72.7882433  24.5847559  53.0606079  74.2128086  24.9954104
 103.0204102 104.3255823  78.1615687 103.6332890 104.8746126  77.6725090
 102.2612855 104.2414730  77.5846041  16.3212729  44.2138815  20.0234437
  16.3211715  44.8703003  19.3267775  16.5801024  44.6973181  20.8079982
  30.8483291  88.3409309   8.4102356  31.4527464  88.0408001   7.7313876
  30.5841470  87.5417709   8.8660640  52.2746786 105.7767456  85.9744329
  51.4373776 105.3301495  85.8490825  52.9075262 105.0691574  86.0971409
  38.4644699  72.5186634  20.9828162  38.3745623  71.9528055  21.7495942
  39.0622020  72.0450115  20.4043674   5.1108670  95.7596493  30.9866595
   4.4283468  96.1976051  31.4951825   5.6930685  96.4666271  30.7083607
  89.0349875  62.6313989  63.1149900  88.3625863  62.6167219  62.4338901
  89.8569021  62.7450006  62.6377261  35.6886339  67.7427721  34.3407726
  36.3276386  67.6088572  35.0407529  35.7985115  68.6595249  34.0883327
  24.9165988  98.3403969  19.8511350  25.5553555  98.5947037  19.1851377
  24.6349239  99.1678905  20.2411890  88.1475434  36.5812700  77.6614392
  87.5097344  36.2567823  78.2971609  87.8126118  37.4399202  77.4030483
  33.9670825  59.9542522  37.1347284  34.8286057  59.9227285  36.7187738
  34.1050220  60.4642105  37.9329443   1.4748751 102.1806145  17.8605795
   1.1575026 102.0228672  16.9714105   1.3409053 101.3482761  18.3138967
  15.5011749  92.7585030  57.3787689  16.3576937  92.6080513  57.7787352
  15.6501174  92.6373196  56.4410257  75.9575678   7.6744937  13.4560907
  75.3679944   6.9629764  13.2063389  76.7727280   7.4842166  12.9918277
  16.1519670  37.3934858  77.1755016  15.5771398  36.7652910  77.6127374
  15.7576322  38.2463567  77.3580861   7.1922725  96.7925549  19.7217989
   8.0830455  96.5239334  19.9467349   7.3082793  97.4944210  19.0813625
 105.8310673   7.0806997  56.1801684 105.4849813   6.3386695  55.6843388
 106.1859582   7.6693027  55.5139625  31.1573625  62.2727823   8.4321189
  31.5395999  63.0115747   7.9585046  31.9034576  61.7111635   8.6422658
  82.2652913  14.6222305  37.4484515  81.9478179  14.4648170  36.5592575
  81.7174435  15.3357410  37.7755666 109.1728089  42.5882356  89.5742703
 109.6365259  41.7584531  89.6868265 109.8338602  43.2578008  89.7501052
  14.2493451  54.0059042  13.3385599  13.4867954  53.8867950  13.9047408
  14.9894106  54.0647984  13.9427674 111.6470263  65.4578798  75.1113034
 111.6912601  65.8034723  74.2197645 111.9430087  64.5510881  75.0316346
  37.6644992  22.4957483  73.2365561  37.9622792  23.3313053  72.8768337
  38.4192704  21.9138925  73.1471634   6.8224382  30.6055562  65.8961761
   7.7269696  30.3871744  66.1205948   6.3047313  29.8897092  66.2646520
  75.1099962  25.1916807  90.2274305  74.9922082  25.3193777  89.2861271
  74.3589023  24.6610515  90.4929903  71.4760996   1.0274791  15.5939507
  71.1151362   1.8871021  15.8107173  70.8124042   0.6229686  15.0352859
  57.3541403  80.8151531  25.6430912  56.5546751  81.2740517  25.3852201
  58.0010366  81.5102959  25.7636523  47.3668194  52.0785761  20.2932954
  47.8624916  52.1097565  21.1115646  47.1299505  52.9900217  20.1218700
  62.4894930  14.0399742   8.3440816  62.2727156  14.8799705   8.7486100
  63.4274555  14.0968799   8.1618112   5.7261014  99.0980625  40.6995964
   5.3080928  99.3982506  39.8925090   6.6641814  99.1842365  40.5298567
  29.4670129  59.0376806  11.6921747  29.5915818  58.6697292  12.5670040
  30.2317715  59.5971203  11.5565145  80.1240826  57.4030924   5.2911437
  79.7050858  56.8216991   4.6565941  80.8126926  57.8441477   4.7936365
  75.4096563  29.7479074  91.9808543  75.5228841  30.6963174  92.0435618
  75.0649662  29.4907873  92.8360201  81.2871409  16.9362163  15.5788016
  82.1107484  17.3901367  15.7572722  80.9832478  17.3080825  14.7507977
  16.2666892  18.8933437  77.7006603  15.5087756  18.8122766  77.1216774
  17.0208120  18.7440555  77.1303547   3.4870433  53.4095876  87.1848649
   2.5792407  53.7010019  87.1000171   4.0074443  54.1955392  87.0184803
 108.5438559  35.0528924  28.2740867 108.2158730  34.3360250  27.7311647
 108.7459204  35.7515638  27.6517761  28.1738067  75.7594204  17.0576787
  28.3285856  76.1279869  16.1879468  28.2198596  76.5113974  17.6481402
  25.6985116  59.3622351  18.1746471  25.4991841  59.0576649  19.0599358
  24.9907660  59.9720240  17.9661167  49.8060226 104.4493389   7.5931495
  50.2600145 104.2485809   6.7747265  48.9244509 104.0971184   7.4706465
 106.1094878  26.3933723  83.0613423 105.8341000  25.9678333  82.2493625
 105.3888342  26.2350004  83.6711037  77.7810717  76.3357496  16.7404306
  77.9430294  76.8199301  15.9307563  78.2738113  75.5218601  16.6354442
  10.3918695  88.7362099   3.0242601  10.9798062  87.9940128   2.8839159
   9.5541555  88.3370972   3.2591471  41.0570002  87.9645157  16.4219999
  41.8887091  87.5517654  16.6546524  40.5307579  87.9091740  17.2196472
  28.1991959  74.1010952  34.8426247  27.5655603  73.8771915  34.1610050
  29.0200114  73.7089729  34.5447493  39.4175076  69.6777058   5.5408597
  39.4005919  68.7558174   5.2838206  40.2209282  70.0207376   5.1496094
  38.6053562  78.0775547  16.5664959  37.8961706  77.4346828  16.5648162
  39.0924573  77.8989267  15.7620978  28.5875559  47.6527834  40.9225273
  29.3069649  48.2801247  40.9941196  28.7716293  47.1680737  40.1179123
  99.2121670  22.1668880  69.5852959 100.0130270  22.0305984  70.0915349
  98.5780308  22.4935644  70.2235639  16.3109696  86.7070866  27.9671288
  16.6043711  86.0712051  28.6196589  15.5769885  86.2778473  27.5275183
  12.9430354  74.2151928  26.1775374  12.0815098  73.8530540  25.9705091
  12.7550256  75.0467682  26.6126966  33.9585376  86.7593002  27.1836448
  34.5356250  86.3429356  27.8238344  33.6791325  86.0440254  26.6121984
  21.1903167  55.2962828  24.5280528  21.2396502  55.5281019  23.6006594
  20.7206750  54.4623327  24.5418167  30.9345531  61.2691593  11.7576790
  30.2703428  61.9582224  11.7735577  31.7149734  61.6968441  11.4051747
  31.1169028  86.6008377  32.3776102  31.9709945  86.7361259  32.7880383
  30.7374859  87.4777031  32.3195267  96.3393924  52.8758447  84.1470504
  96.6286085  52.5616090  83.2904047  95.5174944  52.4121206  84.3072957
 111.2840185  38.7563539  20.9606338 110.7428740  38.0130148  21.2267923
 111.6833781  38.4788394  20.1361752   8.1687695 102.4367428  -0.2876346
   9.0722084 102.3671722   0.0208959   7.6636022 102.6506710   0.4967581
  67.1138859  69.8655748   0.2658311  66.5013409  70.4526758  -0.1772633
  67.8768396  70.4124355   0.4531090   3.6557292  26.0177104  65.4448378
   3.9141082  25.5532854  64.6487320   3.7268829  25.3619306  66.1384690
  82.5529481  11.9712448   3.4463415  82.5594235  12.5559616   2.6885197
  83.2685471  12.2866249   3.9983240   3.5249433  84.9094296  21.8439841
   4.0326226  85.6004238  22.2694468   3.2964832  84.3087292  22.5533438
  69.3775836  31.6306703  90.4195610  68.5568736  31.3488786  90.0155098
  69.5779637  32.4660318  89.9973527  19.6010113  86.6254997  23.2216454
  19.6939075  87.0218468  24.0879679  19.0468168  87.2369862  22.7366829
  49.7746325  84.7695732  12.0284271  48.9644337  85.2388763  12.2273374
  49.6499205  83.9023590  12.4139369  25.6034017  96.9235325  21.8287849
  25.3350973  97.5768280  21.1826801  26.5511322  97.0353794  21.9031501
  10.7229424  58.1795120  14.6582854  10.0353289  57.6463079  14.2593968
  11.3357949  57.5433397  15.0269711  23.9870286 103.6174870  59.7607040
  24.1859198 103.8699818  58.8590860  24.6318579 102.9410648  59.9677896
  38.3898973 104.0784550  10.7634985  38.5049200 103.7423229  11.6523290
  38.5959625 105.0107384  10.8314586   8.8532733  42.4539964  92.2459466
   8.1948184  42.9158037  91.7269121   9.4647502  43.1375043  92.5200768
  37.6954650  22.4195020  91.9145228  37.2423171  22.8877656  91.2133661
  37.2323321  21.5846221  91.9832419 104.2052314  53.1267183  71.6976607
 103.9854333  53.0458562  72.6257682 105.1516411  53.2696550  71.6872275
  21.4756274  72.1436453   8.7356830  22.3125291  71.6996384   8.8723868
  21.6539526  72.7840805   8.0470103  30.0043344  70.6846380  33.9402270
  30.9095979  70.5358887  33.6670923  29.4812918  70.4506540  33.1734729
   5.9748238  86.8124676  26.9715261   6.5350729  87.5797749  27.0881486
   6.5483367  86.1546993  26.5782642  66.7350174  11.5568923  19.3282771
  66.5490771  12.1901893  18.6350346  65.9369017  11.5386581  19.8563957
  23.3946991  89.8143864   6.1411744  23.3491254  88.8852501   5.9156585
  23.2235336  89.8410416   7.0825690  13.0719006  95.5124092  20.1909709
  12.7159011  95.1116180  19.3979609  14.0208578  95.4822636  20.0693011
  43.2955790  91.9933701   2.2402006  42.3397064  92.0424557   2.2286798
  43.5753202  92.6118374   1.5653189  66.9621135  60.8929157  11.8520796
  67.2002030  60.0993823  12.3315167  66.4093424  60.5826282  11.1348581
  45.8773327  48.2489061  15.4934907  45.6687975  48.3197212  16.4250112
  46.4372730  49.0045118  15.3152823 108.4984849  19.6206872  54.2561233
 108.8581321  18.7355201  54.3141282 109.1963718  20.1368062  53.8526309
  13.9320016  56.5506887  11.5908694  13.6901248  56.3756132  10.6814325
  14.2112255  55.7011414  11.9322443  36.0906863  63.1812000  34.0034246
  36.8497944  62.6288223  34.1901469  36.2231255  63.9606476  34.5430112
   5.6332296  73.5615063  16.3727343   6.5820038  73.4919882  16.2667787
   5.3467405  72.6671600  16.5579247  72.1168048  18.8938253  69.9767626
  72.9253108  19.3991201  70.0617683  72.3884392  18.0753582  69.5613611
  40.9958553  98.4366798  32.9487848  40.3531122  99.1077137  32.7189326
  41.1737776  97.9832077  32.1248102 104.2649882  90.4380989   8.7808055
 104.3189125  90.8388805   9.6483886 103.6760019  91.0102272   8.2888705
   1.8120789   5.8281009  84.6530408   2.0462321   5.3133075  83.8807780
   1.0029911   6.2759798  84.4060332  15.7459104  74.1213179  33.3291674
  15.5376291  74.7327328  34.0355802  15.4201591  74.5498562  32.5376678
 103.4543583  22.5385826  83.0050844 102.9952166  22.5675361  83.8444776
 102.8820202  22.0232599  82.4366665  16.0023093  64.4925594  23.0824351
  15.6210899  65.0258446  22.3849297  15.2519727  64.2105293  23.6055851
 110.5460645   9.3763542   7.6852775 111.0261489   9.5457839   6.8746942
 111.0557605   8.6979293   8.1281900  39.0703165   5.6961154  46.6314983
  38.7259773   5.5556392  47.5134993  38.3399130   6.0819053  46.1478567
  70.7734633  22.8795242  29.5021534  70.3446151  22.2607231  28.9110518
  70.4722429  23.7393188  29.2084527  85.7509898  99.9262905  25.0923014
  86.5108918 100.2255535  24.5930767  85.0229739  99.9753284  24.4727683
  24.4703054  83.9584446  31.6404176  23.6509633  83.9975262  32.1337533
  24.3294477  84.5427799  30.8954716  17.6561212  67.7790945  75.2872527
  18.1040715  67.0780294  74.8138845  17.2972821  67.3517244  76.0649515
  20.6154919 103.1810093  25.0194407  21.0406446 102.3517132  25.2379346
  20.7538295 103.2802010  24.0774989 113.3575532  46.0608118  78.5666561
 112.8659866  46.5471284  79.2285383 113.6372349  45.2624528  79.0145851
  56.5823793  71.0115004   4.2531544  57.5146627  70.8196545   4.3545264
  56.4708900  71.1693668   3.3156687  25.1178646  56.9226837   6.0696244
  24.7541046  57.6857042   6.5187502  25.8090997  56.6086388   6.6525495
  60.9394407  97.3518467  23.9081669  61.0476685  97.5363445  22.9751706
  61.4495754  96.5554333  24.0555811  84.2498637  21.1307907   0.9987871
  83.4191895  21.5737724   0.8256647  84.5395089  21.4849662   1.8395585
  19.1059196  75.1676798  36.7837596  18.5152912  75.9008598  36.9565034
  19.9451602  75.5795145  36.5780878  37.4478459  62.6510429   4.3313047
  38.0940247  63.2790947   4.6541589  36.6289258  63.1455231   4.2983148
  57.3607826  91.7965412  63.7681627  57.5372791  92.0992184  64.6589279
  57.5365639  90.8560181  63.7955475  35.9140681  34.0055101  78.9224804
  35.1326894  33.8793294  79.4607687  36.0035800  34.9557035  78.8492477
  19.5118558  92.9208946   1.1217153  18.6670518  93.3589554   1.0185923
  19.7339642  93.0431557   2.0447269  64.4197346   3.3097553  21.4236236
  64.9394751   4.1114234  21.3650370  63.5848738   3.5350418  21.0131526
  62.8609539  25.4344940  32.5055099  63.0670358  26.3533306  32.6772571
  63.2592917  24.9593353  33.2347441  56.9809103  71.1463213  69.4237375
  57.2262192  70.9818411  70.3342295  56.6381264  70.3083944  69.1129208
   1.8977818  96.2179375   5.4860592   2.1028319  95.9956646   4.5778832
   2.4957411  96.9346714   5.6980950  25.4751920  56.7917173  88.6321932
  26.4124631  56.6225736  88.5365942  25.0669622  55.9295194  88.5534698
  44.5198011  95.0322247  20.9991217  44.8415852  95.7126236  20.4077244
  43.5665321  95.1045418  20.9512925  50.4803514  98.6370373  29.7379732
  50.0319242  98.0835533  30.3773451  50.6456566  98.0578995  28.9939952
  77.4876118  96.0570812  14.9372995  77.4955034  96.3702202  14.0328038
  76.5604067  96.0308361  15.1735926   1.0155439  38.6889665  92.1763795
   0.8966231  39.6180551  91.9791692   1.3288640  38.3081739  91.3559798
  43.7848282  76.1645794  29.6910548  44.3509912  76.9360828  29.7126579
  43.2912683  76.2066746  30.5101156  41.9812059  70.6062984  62.7611828
  41.7814589  69.7048998  62.5085688  41.3460207  70.8089209  63.4479952
  64.3099451 106.5373707   4.7237340  65.2554798 106.5781021   4.5804316
  64.0854406 105.6179047   4.5808798  86.4697919  71.4927404  89.9381349
  86.4975009  71.7492692  89.0163666  87.2001753  70.8823221  90.0389280
  57.8183652  11.8512439  14.3100822  58.4224058  12.5704002  14.1252041
  57.4361349  12.0718574  15.1594722  35.3773985   0.5792140  12.2555459
  35.5844259   1.3180446  11.6832674  35.6800451  -0.1898862  11.7727137
  48.0516481  80.8724022  27.1358490  48.8701344  81.0750866  27.5888729
  48.2739401  80.9216690  26.2061238 103.6093045   5.9918212  58.1036329
 104.5181466   6.1705970  57.8622246 103.6437751   5.7995033  59.0406799
  30.2708817  74.5166206  28.1207466  30.3270006  73.8539410  27.4323201
  31.1083126  74.9782324  28.0776858  79.4143009  93.7422276   0.8596992
  78.4676313  93.6012268   0.8724789  79.6500874  93.8684368   1.7787793
  19.9207544 105.3579998  19.0540290  20.4329967 106.1659050  19.0205956
  20.5680037 104.6703148  19.2102182  82.3329736  19.6134090   6.9810432
  82.1712018  19.5314884   6.0411751  81.5725661  20.0897884   7.3143315
  90.0997493  19.3088739  65.4169000  89.4577644  18.6061828  65.3153551
  90.1962647  19.6740549  64.5373762  14.8563635  94.5360184   3.0774862
  14.6461344  95.4692841   3.0450818  15.3624701  94.4323540   3.8833031
  50.7362080 100.4670334   7.8178740  51.2956333 101.1067867   7.3774296
  50.6606960  99.7451115   7.1938848   2.5113320  91.2304878  26.6273117
   1.8725458  90.6245899  27.0029068   3.3462355  90.7662964  26.6880345
  25.1519132  79.5605946   2.1797593  25.9169912  80.1159000   2.0296845
  25.4164791  78.6973333   1.8619284  25.5428958  91.2778091  34.2325234
  26.1071849  90.7074547  33.7105012  25.8845401  92.1586227  34.0786409
  25.3683662 101.4883518  33.5457730  25.3936553 100.5427074  33.6918402
  26.1416459 101.8217659  34.0008664   5.1068782  55.4715173  87.1304220
   5.9613752  55.5135076  86.7011243   4.8733091  56.3861387  87.2890133
  54.8000778   6.8695926  24.4112611  54.9177469   6.1235713  24.9993420
  55.3978396   7.5368976  24.7483325  20.3021096  56.2153547  66.2841595
  20.4966592  56.4814966  67.1827996  20.7921361  56.8320672  65.7403100
   6.6670846  40.0891988  92.5532442   7.4597644  40.3975122  92.9923730
   6.8778276  40.1322572  91.6205240  14.2042005  89.7884655  29.7585917
  14.8203468  89.1460609  29.4065905  14.0872490  89.5319462  30.6733346
  55.8212757  77.4188375  32.3907661  55.7100391  77.1787500  33.3106661
  55.2438593  78.1723881  32.2683859   8.8214206  33.7813871  81.8691039
   9.2452001  33.6256616  81.0250688   8.6884593  32.9070489  82.2352815
  62.1259117  93.0697441  44.6086454  62.2228479  93.3264732  43.6916256
  62.9627705  93.3007622  45.0117874  72.9090978  15.6613635  12.9610837
  73.6439348  15.4527854  12.3842466  73.3121587  15.8197498  13.8147163
  39.6911693 102.6202583  24.1350389  39.5536494 101.7107296  24.3997669
  40.6320763 102.6821518  23.9704394 111.4023016  22.7682846  82.4886203
 110.8343194  23.5341709  82.4046576 111.6526101  22.7558486  83.4124291
 112.6158897  72.4844265  26.7405725 113.5326954  72.7219725  26.8793964
 112.4172276  72.8010273  25.8593631  27.2108269  87.3125935   5.2204716
  27.3246932  88.1820393   5.6042939  26.6261220  87.4541569   4.4759500
 113.0746768  72.3752992  50.6495130 113.3723805  72.2131650  49.7543466
 113.3867309  71.6190069  51.1463821  65.9925915  22.8138732  21.1858273
  66.3092256  22.3498153  20.4108286  66.0895253  22.1829128  21.8990684
   7.3213023 100.8294392  10.5981147   7.3847210 101.2811756   9.7566032
   6.6898835 100.1264000  10.4455614  59.6906973  28.8414096  53.4026670
  59.3735481  28.0622386  52.9460049  58.8961554  29.3170356  53.6449862
  95.4701088  46.5575426  87.2977937  95.0582478  47.1743696  86.6927052
  96.4089439  46.7158716  87.1990502  94.3753753  41.2505357  58.8685978
  93.7250040  40.5600183  58.9967692  94.9770734  41.1528223  59.6065963
   4.7074154 100.1321793  33.7630892   3.8865748 100.1481915  33.2709551
   4.7798187  99.2314816  34.0788746  26.3896203  95.8258247   6.5925521
  25.8301377  96.5912533   6.7241895  26.6994357  95.9078789   5.6906021
  49.2413139  77.6781988  10.5610704  49.0076780  78.1427860   9.7574502
  48.5548973  77.9170275  11.1839879  30.8873606 104.4125462   8.3470947
  30.5121803 103.9738846   7.5835156  30.1308751 104.7608757   8.8189292
  97.0029641  20.0413703  15.5981350  96.2794114  19.9453830  14.9788678
  96.6765262  19.6532154  16.4099264  13.2054471  13.7157266  59.1640222
  12.6293706  13.3357351  59.8273290  13.4793996  12.9705017  58.6293996
  60.5316994   0.9321897  82.8197527  59.8808072   1.3351743  83.3943600
  61.2492321   1.5650194  82.7897376  96.0014079  16.7140739  78.6327863
  96.2993119  17.3889511  79.2427266  96.8000457  16.4142244  78.1986213
   0.3205875  87.4633312  29.2683411  -0.2691679  87.1350098  29.9470329
   0.0089906  87.0533657  28.4614515  68.4837672 106.5489452  82.0858527
  67.6271388 106.4277952  81.6762901  69.0009472 107.0121162  81.4268923
  24.2580699  18.8693635  68.3765352  23.8973998  18.8205307  69.2618406
  25.1942205  18.7050502  68.4898961  16.1493062  14.3702095  64.4438756
  16.8512677  15.0138919  64.5395911  16.0400485  14.2738693  63.4978235
  11.8050193  19.6367471  70.1071489  11.9030093  20.1147478  70.9306443
  12.5662564  19.0573661  70.0744689  45.8187294  67.9466105   4.8682472
  46.4866924  68.6204481   4.9947342  46.3062239  67.1228504   4.8697469
  74.2419001  97.1100824  81.8852532  74.3908259  96.1980169  81.6358733
  75.0525853  97.3749989  82.3198116  54.3502793  99.2031401  76.6750813
  54.3068084  99.8347729  77.3929799  53.8370892  99.6029203  75.9729112
  99.7738431   6.4169662  62.2637618  99.1267583   7.0088975  62.6473368
 100.6178663   6.7696111  62.5457180  38.9784383  35.6840532  75.5068636
  39.0445327  34.7611253  75.7519687  39.5677709  35.7758348  74.7582019
  16.7661846  56.7150640  12.2270393  17.1004272  55.9525347  11.7547441
  15.9413087  56.9252825  11.7892945  65.7404661  30.1436257  17.4669528
  65.0920486  30.1644158  16.7631388  66.2318230  30.9586239  17.3640859
  78.7627646  87.1147101  78.6473751  78.6616513  88.0532163  78.8061726
  79.7051045  86.9912308  78.5334480 110.9787796  11.9401090  77.2356189
 111.6385553  11.9711750  77.9284120 111.4234469  11.5187662  76.5001107
  11.1017465  15.1797979  85.4021353  11.5666246  14.3479984  85.4928589
  11.1725568  15.5890529  86.2645322  10.6738400  97.5442219   8.9241087
  10.6474817  98.3119965   8.3530957  11.1803567  96.8975449   8.4327060
  72.4044323  82.8595638  28.4626651  72.0180273  83.5855389  27.9728889
  72.4630404  83.1817627  29.3621016  14.7011364  64.7541094  18.5750639
  14.9389470  63.8505602  18.3670211  14.1623306  65.0362206  17.8359199
   0.3811801  49.2799664  16.5200365   0.1342201  49.8469448  17.2506380
  -0.4484072  49.0612221  16.0955763  10.7545947  18.1153362  92.2581401
  11.1633824  17.3992317  92.7442639  10.6769275  17.7838533  91.3635358
  33.8625884  68.8915348  21.6699839  32.9203224  68.9185858  21.8362212
  34.1384888  68.0342293  21.9942307   8.0902290  36.0766714  67.9174364
   7.8706502  35.6159894  68.7272442   7.3300647  36.6319578  67.7441013
  97.0921323  75.6868380  81.4070845  97.2010705  75.4626959  82.3312736
  97.9835698  75.8275741  81.0880769  24.1845441  58.5944510   3.2531986
  24.1700077  58.6938572   2.3012850  24.5065999  59.4356918   3.5769701
  49.3167543  73.2017946  20.5980635  49.0351200  73.3856010  19.7018898
  50.1194715  73.7118673  20.7062411  64.4631720  49.5522690   4.9952295
  64.7319412  48.8132715   4.4494510  64.6086073  49.2526436   5.8926165
  80.9741065  91.4949029  85.7064301  81.7587611  90.9587162  85.8206487
  80.3369567  90.9044378  85.3044057  45.1388791  91.8994897  84.2982036
  44.3107751  91.6098683  84.6810806  45.1107845  91.5794151  83.3965415
  97.5744722  49.0293519  72.3607099  97.0265148  49.6358888  71.8626178
  98.4078786  49.0177648  71.8900383  48.5384988  23.8498800  60.3864754
  48.5645723  24.2272680  59.5071948  49.3675470  24.1142385  60.7852567
  13.8042640  25.1123445  78.9222920  13.4122800  25.2207677  79.7887945
  14.7188806  25.3692691  79.0393102  70.2983401  41.1440580  84.5691377
  70.3990028  41.8120306  85.2473033  69.3525068  41.0754602  84.4390405
  12.1701634  90.8266830   2.6762721  11.4648974  90.2160263   2.8905988
  12.9246855  90.5035305   3.1687140  76.3886286  16.5200345  87.3824871
  76.0963068  17.1545999  88.0367834  77.2093532  16.8816726  87.0480347
  15.8027041  60.7292223  31.0086226  15.0131261  61.0699034  30.5882239
  16.0848022  60.0110531  30.4421544  39.4504952  71.4230013  17.8585637
  40.3871489  71.3943100  18.0537391  39.3743658  72.0529127  17.1418726
  87.3623619  16.3356321  46.8342007  87.6371954  16.1336153  45.9398401
  86.4060316  16.3451641  46.7945135 102.3416684  43.2409399  55.6205714
 101.8710611  43.4518068  56.4269817 103.0006406  43.9305704  55.5405152
  96.4008544  25.8376949  58.5341323  95.6130240  25.3809659  58.2392538
  96.9546745  25.1480691  58.9001000  32.8915572  66.0842276  14.5250022
  33.7894773  66.2435293  14.8158526  32.3961949  66.8335867  14.8556137
  32.9005909  66.5824747  25.2675629  33.5207009  66.5946817  24.5384908
  32.0455432  66.7108774  24.8569083 109.3433234  82.5458139  82.0827246
 109.6086594  81.6274326  82.0336819 108.4228179  82.5435179  81.8202567
  58.4323454   8.9257133  14.4384968  58.1954193   9.8108822  14.1617763
  59.0957308   8.6469418  13.8072777  14.8353207  54.9050808   6.0024649
  14.0805089  55.4153538   5.7090122  15.4817152  55.5614567   6.2624186
   9.1081101  69.2348480  25.3787756   9.6274704  69.5413399  24.6354318
   8.2757437  69.7004795  25.2976227  18.8692235  19.4566028  59.3842495
  19.7870492  19.7049777  59.2740977  18.3801746  20.1328628  58.9154804
  93.1787691  12.7022903  57.3630679  93.4595928  13.6048429  57.2121752
  93.7143455  12.4045722  58.0984271  23.4611367   1.8478363  63.0312550
  22.6222991   1.4319055  63.2302344  23.5477542   2.5386159  63.6881769
  66.1665058  70.1657200   2.8094503  65.6985569  70.9765005   3.0091980
  66.3929605  70.2420092   1.8825573  21.9567657  75.3393507  16.8238175
  21.8523932  75.0486231  17.7298057  21.8013930  76.2833166  16.8557835
  10.6652068   8.5406415  73.6171878  11.6010713   8.7302272  73.5505069
  10.3367232   9.1764705  74.2528367  80.4479548  93.0036777  72.3869717
  79.6051642  92.8835147  72.8245759  80.2656695  92.8281825  71.4638198
  41.6199207  68.3087111   2.0051372  41.8738127  67.3917150   1.9007823
  42.3129511  68.8007164   1.5648329   9.4787072   7.2611301  85.7070136
  10.0291537   7.1273773  84.9354256   9.0711354   6.4088600  85.8611238
  30.5410457  48.5144758  10.0974321  30.9042645  48.9694738   9.3376434
  31.1629128  48.6924124  10.8030176   3.4262036  15.0226610  80.4876924
   3.2184314  15.3510826  79.6129334   3.3831739  14.0702407  80.4024184
 102.3521516   9.1765420  83.8093722 102.1429989   9.4577901  84.7000957
 102.2966049   8.2214658  83.8405073  60.6247616  68.8337708   8.4681547
  61.5327311  68.9549494   8.7459028  60.1045847  69.1989756   9.1838849
  80.4827753  29.5563047  78.0205727  79.9155439  28.7877290  77.9591287
  80.1435102  30.1579683  77.3579002  86.0806439  27.5397413  76.7328441
  85.3326712  27.3578851  76.1638999  86.8190250  27.1081274  76.3030351
  36.3575959  49.3109226  15.7661486  37.0606852  49.4507694  16.4004517
  35.9308696  50.1643085  15.6895649 105.3050587  30.6799238  85.4782129
 104.8521731  31.5199201  85.5526346 105.7775567  30.5884378  86.3056219
  56.0564995  77.9358482   9.6919155  57.0100021  77.8563023   9.6647739
  55.8828068  78.8330841   9.4072509  60.8909893  79.4246674  -0.2211786
  60.9697199  79.3014002   0.7247809  60.0342560  79.8350525  -0.3387575
   5.3171586   3.3111780  64.0475333   5.1033401   3.8570039  64.8042286
   4.6411227   2.6335447  64.0423262  23.1332660  60.8174801  20.3289533
  23.0705214  61.3403845  19.5296621  23.5671592  61.3933802  20.9584832
  18.7213277  22.8044813  89.0794790  18.5820245  23.7316387  88.8865799
  18.8653134  22.7756374  90.0253480  11.7087649  32.0714204  72.3818839
  11.6289472  32.7731149  73.0280173  12.4355601  31.5353124  72.6990474
  58.5724211  76.8209553  34.9802399  58.1078386  77.5267076  34.5304561
  58.0833006  76.6920280  35.7928705  50.3991556  81.3022804  28.3435130
  50.7941008  81.6519737  27.5447845  50.9633541  80.5688381  28.5884142
  21.4381313  28.9313333  92.4168210  22.1840238  29.2824285  92.9032376
  21.1572265  29.6535699  91.8549420  45.7490110  67.3973274  14.2224836
  46.0892963  66.5299845  14.0030348  45.1619053  67.2440100  14.9627745
  23.5554600  80.5430126   7.9093289  22.7151179  80.0956917   7.8095412
  24.2045665  79.8397160   7.8932554  18.3785403  72.2360229   4.7998792
  19.0766490  71.9754696   4.1990548  17.9568064  71.4133883   5.0481737
  37.0704126  89.4715023  22.1309400  37.9307103  89.1155910  21.9085789
  36.5553403  88.7079048  22.3914051  30.7133317  83.1868553  11.2597263
  29.8272753  83.1228924  10.9032929  31.0226345  82.2817516  11.2964547
  38.8974714  39.7590947  21.6874909  38.6732960  38.8991165  21.3319445
  38.1039262  40.0456190  22.1396208 102.7365420   9.8629968  81.2711382
 102.6519129   9.6099250  82.1903897 101.8347595   9.9647205  80.9667218
  23.5718536  53.4645002  64.0078533  22.9022550  53.0085199  64.5177090
  24.3967294  53.0655782  64.2847383   1.1829956  50.8193779  19.8637688
   0.2940379  50.5408859  19.6437037   1.7295876  50.0612926  19.6569347
  12.8974008  22.0824592  89.4996411  12.3974561  22.6736944  88.9368555
  13.4825801  21.6191022  88.9003921  64.0194035  68.0284357  19.6247566
  64.7538853  68.0989027  19.0149963  63.8675117  68.9257193  19.9214733
 106.8856070   2.6987522  81.1486543 106.9000981   3.6394899  81.3248062
 105.9615037   2.4574106  81.2120450  93.0865297  39.3160264  71.6190827
  93.2734666  39.1918008  72.5495971  93.7596569  38.8053148  71.1692965
  69.0822717  65.8307033  82.5882179  69.0191337  66.5883463  83.1697870
  68.8734743  65.0819462  83.1467867  46.2888050  77.5128698   5.1073909
  46.9539833  77.1520710   5.6935608  45.6580400  77.9340696   5.6913108
  24.7957706  65.1464670  78.1290830  24.9021720  65.8456438  78.7741089
  24.6919297  65.6040494  77.2947789  30.8008218  78.1568527  10.6987798
  30.0562358  77.8336143  10.1914918  31.3956857  77.4089861  10.7541239
   5.6213760  10.7746522  74.4866789   4.6711492  10.7179420  74.5870948
   5.9707879  10.3241651  75.2555776  31.7582606  22.9954355  70.6306756
  30.9021472  22.9692953  70.2033437  31.5693187  23.2661693  71.5291369
   8.3962392  24.6170585  77.4136889   9.3346357  24.6291940  77.2252822
   8.0067538  24.1706293  76.6618693 100.8102036  81.7115116  17.4066079
 100.1810932  82.3772240  17.6846004 101.6581059  82.1544266  17.4400949
  44.1081572  78.7419319  32.5018024  44.7019577  78.3978128  33.1690478
  43.3909369  78.1088352  32.4699736 104.4063923  42.8009336  83.8821411
 104.6269367  42.1387403  83.2270867 104.7188733  43.6236398  83.5056621
 106.5199564  16.6040771  83.7493539 107.4296258  16.3062685  83.7559617
 106.3912795  16.9613616  82.8707058  32.9223728  63.8506269   7.0258009
  33.3811808  64.4537926   7.6105392  33.6010671  63.2468891   6.7239606
  37.4409055  26.3021915  62.5844324  37.0256519  26.1832540  61.7302382
  37.5527906  27.2492807  62.6665652  63.0644894  59.4296503   5.3463292
  63.1487608  58.8640261   4.5787373  62.2869062  59.1039276   5.7996565
  29.6261501  81.9540119  14.2947459  29.0986156  81.4214230  13.6995161
  29.0455866  82.1327782  15.0344884  95.1338921  40.0676649  52.4365414
  94.8499713  40.9790914  52.3664320  94.4129679  39.6260755  52.8854311
  16.2799310  36.3490503  69.0185535  17.1870469  36.0500925  68.9553893
  16.3404702  37.2138708  69.4243253  74.4343138  52.8887796  11.6234303
  73.6901426  52.5963593  12.1496737  74.7779417  52.0874500  11.2284303
  31.6899562  36.6414356  15.9856904  31.8961000  37.0278239  16.8368316
  32.2609067  37.1005034  15.3696513  85.6648002   5.8434122  66.3535250
  86.4648840   6.3617342  66.4397896  84.9765084   6.4039390  66.7117131
  69.6899605  66.3961029  27.8425050  69.7354889  66.2155819  26.9035864
  69.2960262  65.6090975  28.2188940  24.2603206  20.6059711  72.4324739
  23.9463042  21.2104528  71.7599976  24.0573167  19.7367399  72.0868481
 108.6100791  20.4846685  86.8483848 109.5208833  20.2785938  86.6381413
 108.1047604  20.0874298  86.1391008  27.8330707  53.3825605  79.9408877
  28.1702565  52.7977293  80.6194938  28.6098432  53.8243215  79.5978034
  81.5376803 103.5598724  89.1718763  81.4441249 103.3738773  90.1061592
  82.4510237 103.8280695  89.0713421  20.2452183  83.9937210  24.6048999
  21.1091971  84.4046783  24.6347666  19.7092366  84.5998478  24.0934658
   6.2614917  22.5114219  88.2746017   5.3390407  22.5189178  88.5300595
   6.6727113  21.8946378  88.8801602  53.7165785  29.3867540  18.6858213
  54.1217089  30.0821447  18.1676161  52.7808237  29.5872068  18.6656570
  73.7439955  17.5530689  52.0681751  74.5283815  17.1965044  51.6512430
  73.0269114  17.0200031  51.7248619   1.4916300  21.8461530  90.1625014
   1.7903661  22.6450698  89.7280747   2.0725440  21.7525070  90.9174866
   8.6684048  69.3833590  18.6027122   7.9388654  69.3087435  19.2178833
   8.4754473  70.1728010  18.0969596 106.3277862  25.6197946  69.6352589
 107.2245858  25.8590953  69.4013393 106.4270756  24.9679677  70.3291595
  69.5371870  32.4627607  80.5494905  69.9075410  31.9395463  79.8386383
  68.9882997  33.1113260  80.1086665  41.1725140 103.1830025   9.9154687
  40.8816910 103.3152103   9.0131515  40.4341316 103.4745979  10.4502571
  12.5659513  10.1753156  41.2621153  11.8023442  10.6402509  40.9201134
  13.3035182  10.7560747  41.0751713 106.7050479  45.9332387  74.7271133
 106.5671418  46.6273038  74.0825296 106.2793729  45.1649683  74.3466068
  74.3398380  97.3027229   0.4069713  74.0883112  97.7163792   1.2327167
  73.6526394  97.5586987  -0.2082247  68.9799643  66.6316938  38.7864494
  69.0598822  66.8413019  39.7169924  68.0996180  66.9237137  38.5499048
  78.0301997  92.3624509  73.9189804  78.4125325  92.6954096  74.7308874
  77.1390125  92.7117150  73.9130426  74.3197700  84.1214960  84.7730595
  74.4516322  83.1884235  84.6050752  75.1418587  84.4123118  85.1678080
 113.2976769 113.2976769 113.2976769 109.4712190 109.4712190 109.4712190
