
49925  0.0000000e+00
  46.0095215  55.3585196  16.6744208  45.4725981  55.3060293  15.8205712
  46.8580055  55.8920860  16.5500033  45.5695200  55.9327030  17.3792696
  46.3244772  54.0311909  17.1588123  45.3614283  53.5434198  17.3095679
  46.9803476  53.0222940  16.1252987  48.0449295  53.2540083  16.1581373
  46.6931772  52.0178652  16.4363444  46.7102337  53.2127380  14.6766365
  46.6733789  54.3190765  14.2422199  46.6616011  52.1974707  13.8057995
  46.3593054  52.3942041  12.8623927  46.8955135  51.2611866  14.1037154
  47.0530939  53.9637804  18.5299683  47.5107479  55.0167608  19.0602326
  47.1231031  52.8401613  19.1833413  46.8120289  51.9807529  18.7535167
  47.8869200  52.5364494  20.4068780  47.3981142  53.0640268  21.2259221
  47.7235174  51.1123705  20.7849646  48.3232927  50.5371332  20.0796485
  48.1567621  51.0386610  21.7824435  46.2463999  50.5202436  20.8020282
  45.7578516  50.6974030  19.8438883  46.4103746  49.0216541  21.1257076
  46.7175817  48.4444666  20.2535939  47.0859194  48.9173889  21.9747472
  45.5175781  48.6703825  21.6430235  45.3806019  51.1820889  21.8578053
  45.3699780  52.2595453  21.6932607  44.3966579  50.7164001  21.9133878
  45.8551073  50.9436893  22.8097057  49.3669987  52.9243994  20.2726555
  50.0135326  52.5019932  19.2999303  49.8865175  53.8240528  21.1615705
  49.2272472  54.2116690  21.8212795  51.3016844  54.1352558  21.2751698
  51.8005371  54.4473600  20.3576517  51.5655422  55.2943230  22.2416544
  52.6175690  55.5757189  22.1951199  51.0119677  56.1674929  21.8963480
  51.2002993  54.9017334  23.5915613  50.2446842  54.9934292  23.5911345
  51.9730997  52.8015423  21.8018937  51.2397671  51.9150114  22.2679424
  53.3335161  52.7202606  21.8557453  54.3513012  53.6062288  21.4761519
  54.6985912  54.2083740  22.3157406  54.0503168  54.1952991  20.6098318
  55.5178452  52.5890064  21.0451365  56.5082884  53.0430794  21.0144687
  55.2860260  52.1654415  20.0679135  55.4680347  51.5323925  22.0654488
  55.8415222  51.8981361  23.0219221  55.8075857  50.5351686  21.7855310
  53.9396429  51.4708805  22.3698473  53.5314322  50.6801891  21.7403436
  53.6180067  51.1164761  23.9184046  53.3147621  49.9771833  24.2140198
  53.4822369  52.1122360  24.7833085  53.9065886  53.0105495  24.6014714
  53.0424356  51.8791819  26.1607790  53.8195276  51.1996126  26.5106654
  53.1111670  53.2226801  27.0359421  53.9750147  53.7885475  26.6871405
  52.2548771  53.8726711  26.8560171  53.3387804  52.9408073  28.5396862
  52.5632429  52.2837257  28.9332366  54.6428204  52.1493673  28.8158345
  54.6094561  51.0869694  28.5743833  55.3841066  52.6610565  28.2020140
  54.9778557  52.2899914  29.8434901  53.3491421  54.3131685  29.2832613
  52.3345327  54.7074795  29.3397212  53.5448408  54.1407633  30.3415990
  53.9627314  54.9347162  28.6311221  51.6961193  51.1771774  26.2737107
  51.5161991  50.2497768  27.0470190  50.7532215  51.7145777  25.5331039
  51.1123276  52.2513437  24.7565556  49.4442558  51.1620522  25.2944207
  48.9584875  51.0507011  26.2638187  48.5321522  52.0057821  24.5090055
  49.0452480  52.1679497  23.5610962  47.5827503  51.5116453  24.3026686
  48.2120275  53.3720016  25.1742506  47.5684881  53.2080698  26.0385919
  49.1123343  53.8060188  25.6091928  47.5825310  54.4177628  24.2188001
  48.3361530  54.9539852  23.3478880  46.3978338  54.8295736  24.3922424
  49.5310783  49.7199726  24.6761203  49.0958691  48.7429523  25.2738070
  50.1122284  49.5877123  23.4700704  50.6079245  50.3897095  23.1078815
  50.4093838  48.3169842  22.7355957  49.5267153  47.9056215  22.2459245
  51.4465618  48.5277081  21.6611195  52.3306608  49.0164995  22.0704484
  51.8695641  47.6018763  21.2712431  50.9999323  49.4013977  20.6895423
  51.0316229  50.3121567  20.9913969  50.9082413  47.2356749  23.7076783
  50.3517962  46.1927366  23.7922812  51.9400549  47.5304031  24.4434762
  52.4002934  48.4198380  24.3123960  52.5211620  46.6259050  25.4372096
  53.0123091  45.7464123  25.0208378  53.6877489  47.3106050  26.1849904
  54.4777107  47.2857046  25.4343581  53.3476448  48.3247185  26.3947558
  54.1917515  46.6105080  27.4376869  53.3711958  46.4100361  28.1265998
  54.9752188  45.3392363  27.1564221  54.5555687  44.5793009  26.4972544
  55.9657907  45.5287647  26.7429590  55.2126694  44.9491644  28.1461501
  55.1141644  47.5896597  28.2026792  55.5462790  47.0875025  29.0682530
  55.8832550  48.0896664  27.6139569  54.5504522  48.4540510  28.5536170
  51.4212561  46.1829710  26.4443469  51.0893726  45.0009108  26.5708089
  50.7084513  47.1640205  26.9626379  50.9299946  48.1314945  26.7755222
  49.6794844  46.8608236  27.9575253  50.1026058  46.1756182  28.6920810
  49.2610693  48.1548214  28.6581182  50.0803804  48.7426996  29.0719128
  48.7944174  48.8542414  27.9644704  48.5337973  47.9864788  29.4523716
  48.4960556  46.0310793  27.3883057  47.8685188  45.2533531  28.1773758
  48.1521416  46.0533857  26.1279154  48.4647846  46.8340921  25.5685878
  47.2735405  45.1553965  25.4452610  46.5381002  44.9144220  26.2128258
  46.4965105  45.8327341  24.3126941  45.9743643  46.6377211  24.8298693
  47.2620726  46.2598705  23.6649561  45.5236864  44.9573660  23.6204743
  45.7860899  44.2707109  22.4783921  46.7385674  44.1980600  21.9744968
  44.6389914  43.6907196  22.0308113  44.7216082  43.1652451  21.1722374
  43.5415220  44.0339518  22.7936864  42.1292639  43.8031769  22.6679254
  41.7372322  43.3675575  21.7607594  41.2581635  44.2625856  23.6640048
  40.1955271  44.1895056  23.4855151  41.8051386  44.8771477  24.8187184
  41.1863375  45.2236319  25.6332350  43.2098579  45.0424147  24.9604154
  43.6296511  45.4387665  25.8731461  44.1239405  44.7097778  23.9434195
  47.9095364  43.7880707  25.0622845  47.2402287  42.7884626  25.0683618
  49.1924238  43.6964464  24.7670770  49.6528387  44.5926619  24.6968865
  49.9310970  42.3801899  24.4331551  49.2972994  41.7439699  23.8153934
  51.2075377  42.6194811  23.6104417  51.8443680  43.3608913  24.0929961
  51.9068670  41.8012714  23.4384537  50.9832621  43.2626867  22.2293139
  50.8332014  44.3356466  22.3490453  51.8906021  43.2909966  21.6259670
  49.9866819  42.5630903  21.3009334  49.5370865  41.4518070  21.5006065
  49.9635124  43.1221342  20.1184034  49.7065496  42.5841904  19.3031216
  50.3735733  44.0300274  19.9520314  50.1682472  41.5255976  25.7284117
  49.9504280  40.3207302  25.7695174  50.5915451  42.2132492  26.7747307
  50.7858515  43.1935263  26.6284108  50.5763340  41.7618942  28.1725764
  51.2759161  40.9670067  28.4311104  51.0112429  42.8494453  29.1239524
  50.5158377  43.7965631  28.9103007  50.7231236  42.5925732  30.5922580
  51.1759901  41.6753960  30.9688163  51.0723448  43.3984852  31.2377429
  49.6356726  42.5832701  30.6661963  52.5265741  43.1375360  28.9542484
  52.6583385  43.3903885  27.9022026  52.8070116  43.9558983  29.6173739
  53.1025791  42.2912836  29.3286657  49.2245436  41.2240124  28.5954833
  49.1710377  40.2012014  29.2634964  48.0927324  41.9196892  28.2386518
  48.2728577  42.7987957  27.7751565  46.7168427  41.5456772  28.5874939
  46.6769171  41.4306211  29.6706724  45.8032179  42.7096367  28.2232070
  46.0989809  43.5277462  28.8799596  45.9508181  42.9935312  27.1812296
  44.3332195  42.3557901  28.4022808  44.0050554  41.7238283  27.5770307
  44.1398096  41.8299913  29.3372846  43.3122492  43.5103273  28.4307790
  43.8079357  44.2209291  29.0921736  43.0785179  43.8822603  27.4332142
  42.0823526  43.0439043  29.2145038  41.6407108  42.1524334  28.7691617
  42.3731136  42.6257944  30.1782179  41.2705183  44.2173862  29.4012237
  41.3714027  44.8589087  28.6276793  40.2908516  44.0134287  29.5381927
  41.4613533  44.7813129  30.2171111  46.2772512  40.2135706  27.8726864
  45.7944584  39.2727828  28.4797525  46.5641546  40.1383495  26.5698361
  46.9646645  40.9584904  26.1373234  46.2029839  39.0093303  25.6942868
  45.1248884  38.8565564  25.7439184  46.6332006  39.3423653  24.2956972
  47.6415205  39.7562289  24.3062997  46.4801073  38.4048796  23.7611079
  45.5576944  40.6483173  23.5533166  45.8424950  41.5412521  24.5053983
  46.8034410  37.6297736  26.1344671  46.0741854  36.6379809  26.2336922
  48.1178999  37.6380777  26.4650106  48.7238073  38.4329534  26.3195825
  48.7570524  36.4940405  27.0532751  48.6465406  35.5997252  26.4400125
  50.2736187  36.7842817  27.1475720  50.3626060  37.6485801  27.8057265
  50.7055235  35.9351325  27.6772046  51.1693144  37.0516825  25.9182906
  50.6218481  37.6504946  25.1904058  52.5282812  37.6921391  26.1295342
  53.1809187  37.6024055  25.2611303  52.4348736  38.7600207  26.3270307
  52.9834747  37.1502399  26.9585371  51.4960241  35.7149434  25.2559996
  52.0199823  35.1064849  25.9931254  50.6200743  35.1867795  24.8793578
  52.0921183  35.8661318  24.3560481  48.2234478  36.1028504  28.4715247
  48.0332041  34.9237633  28.7458968  48.0254936  37.1107841  29.3253136
  48.2279587  38.0695748  29.0807128  47.5836086  36.8869400  30.6713414
  48.2219172  36.1115003  31.0948491  47.7240276  38.1383061  31.5326571
  47.3496151  39.0013456  30.9821320  46.9893599  38.0567098  32.3337221
  49.1712523  38.4257817  32.0561385  49.7353983  38.5410619  31.1306381
  49.1977501  39.7636867  32.7864933  50.2350855  39.9594593  33.0579925
  48.9349842  40.5083227  32.0351100  48.4805679  39.7923040  33.6068177
  49.8265648  37.3164129  32.8752661  49.0477419  36.9984770  33.5684061
  50.2199841  36.5579939  32.1984148  50.6215715  37.7588296  33.4755421
  46.1784840  36.2819171  30.7787013  45.9099627  35.4816318  31.6706538
  45.3135443  36.5075970  29.8368669  45.6066465  37.0081806  29.0100574
  44.0058184  35.8142686  29.7601914  43.4300709  36.1298037  30.6302810
  43.3875132  36.1047626  28.4024382  43.3307981  37.1906662  28.3269644
  44.0347242  35.6965566  27.6261735  41.9839668  35.4902840  28.3174849
  41.9807053  34.4489360  27.9954910  41.4847469  35.6912708  29.2653751
  41.2439251  36.1415529  27.2386718  40.2636862  35.6648660  27.2378421
  41.0102987  37.1507335  27.5778985  41.8338537  36.0875988  25.8872247
  42.8532934  36.4734030  25.8850598  41.8167067  35.0106192  25.7201171
  40.9291840  36.7460155  24.9724865  40.8577681  37.7223587  25.2210116
  41.4215994  36.5567994  24.1111970  39.9994016  36.3609576  24.8868132
  44.1541243  34.2683768  29.7565508  43.3700418  33.5452700  30.3748035
  45.1850367  33.7746930  29.0382004  45.6086063  34.4047356  28.3720636
  45.5334044  32.3465538  29.0034175  44.6058130  31.8293214  28.7581563
  46.5760517  32.1321011  27.8729129  47.5498247  32.4760056  28.2216144
  46.7653704  31.0587311  27.8611302  46.4144468  32.7934718  26.5242362
  45.1721334  32.9686069  25.8894348  44.2585421  32.7415752  26.4187765
  45.1512432  33.5156798  24.6382642  44.2325878  33.8334107  24.1676116
  46.2967777  33.8333154  23.9043021  46.1272430  34.2983460  22.6681805
  46.9094133  34.0336037  22.1785665  47.5520086  33.6237264  24.4919753
  48.4787512  33.8462949  23.9840317  47.5733137  33.1143832  25.7615352
  48.5042095  32.9905558  26.2949300  46.0777140  31.8289495  30.3468537
  45.6052876  30.7873416  30.7815456  47.0521116  32.5059700  30.9761524
  47.3798704  33.3492756  30.5272532  47.8383780  32.0308709  32.1462440
  48.3067751  31.1044765  31.8138337  48.9559984  32.9883885  32.6384282
  48.5157299  33.9246440  32.9814887  49.4321060  32.3980093  33.4212875
  49.7968483  33.2532835  31.5445495  49.9729824  32.3941112  31.1541605
  46.9000435  31.6033983  33.2524180  46.5650415  32.3913932  34.1783810
  46.6524076  30.3095365  33.3715248  47.1225119  29.7218347  32.6979446
  45.7422209  29.7418523  34.3747950  44.7873831  30.2474904  34.2308736
  45.5590248  28.2474971  34.1104007  44.9459267  27.8183341  34.9028850
  45.0391197  28.0548453  32.7080607  44.0618515  28.5259151  32.6024675
  45.8253241  28.1936646  31.9659591  44.7169209  27.0298219  32.5247264
  46.8752909  27.6888180  34.1963148  47.2692442  27.8534961  33.3364964
  46.1345196  30.0158310  35.7697797  45.2492952  30.0452065  36.6271853
  47.4370384  30.2302527  36.0669088  48.0798340  29.9913955  35.3253770
  47.9866743  30.5302191  37.3731112  47.4404097  29.9595523  38.1241369
  49.4507599  30.1757979  37.4332142  49.9393225  30.5975103  38.3116055
  49.6002007  28.6579657  37.5164223  48.9878416  28.4028196  36.6515398
  50.6270266  28.3832026  37.2751045  49.2666435  28.3085680  38.4935403
  50.0396442  30.6607127  36.2641287  50.6050634  31.3959455  36.5117884
  47.9515743  32.0533013  37.7344561  48.2549763  32.3645473  38.9179707
  47.5500441  32.8832746  36.8139935  47.3508978  32.5372887  35.8862352
  47.4980640  34.3522215  37.0746756  48.3329964  34.6950293  37.6857972
  47.6590157  35.1772642  35.8162260  48.5996246  34.9474573  35.3156781
  46.9389772  34.8243546  35.0779152  47.5979424  36.6777802  35.8850121
  46.5443611  37.4520373  35.6492686  45.5639124  37.1004200  35.3638005
  46.9013882  38.7556720  35.5747008  46.2178230  39.4972157  35.5203795
  48.2255888  38.8748956  35.8991528  49.0098000  40.0063658  36.0422802
  48.6864233  40.9930563  35.7451868  50.3674841  39.7910690  36.4419222
  50.9017181  40.7022095  36.6673517  50.8696175  38.5134745  36.6987801
  51.8690538  38.3753800  37.0840788  50.0408125  37.4233508  36.4456367
  50.3722000  36.4079547  36.6054845  48.6971188  37.5674534  36.0712790
  46.1590958  34.6936846  37.7891493  45.0810862  34.2069602  37.4323654
  46.2739754  35.6126094  38.7487197  47.2437859  35.8261180  38.9330769
  45.2525568  36.1663413  39.5849204  44.3225813  35.7470345  39.2009592
  45.3813219  35.7194400  41.0475683  45.4466295  34.6314240  41.0395908
  46.2280560  36.1449361  41.5861797  43.9976931  36.0491657  41.7237091
  43.9114189  37.1253824  41.5739870  43.2785320  35.3756285  41.2575960
  43.8794851  35.8363652  43.2170057  42.8366423  36.0961795  43.3988953
  44.2363501  34.8136258  43.3384705  44.8218489  36.6984916  44.0093756
  45.8303881  36.5393353  43.6277628  44.4076538  37.6936388  43.8474369
  44.6123171  36.4854574  45.4698849  44.8164558  35.5305743  45.7280064
  45.1756144  37.1033025  46.0365105  43.6590910  36.7163181  45.7110548
  45.2183628  37.7465558  39.3952179  46.0235500  38.4412408  40.0956011
  44.2545843  38.3094859  38.6312270  43.2340050  37.5460720  37.8355575
  42.5676155  36.9305849  38.4398770  43.7087202  37.0982838  36.9624972
  42.3463392  38.6296916  37.2228289  41.5255356  38.8916302  37.8904963
  41.9865561  38.3587313  36.2302399  43.3021307  39.8062229  37.2657537
  42.7474213  40.7430887  37.2140265  43.8827991  39.7520041  36.3448930
  44.1833401  39.6949005  38.4426188  45.1912212  40.0700665  38.2650447
  43.5965633  40.4474974  39.6005273  43.0739689  39.8962736  40.5106163
  43.6000824  41.7922735  39.6524358  44.1636467  42.2782612  38.9695668
  42.7152109  42.6943636  40.4310560  42.7543640  42.4875546  41.5005398
  43.1137896  44.1725683  40.2047873  44.1702986  44.2758799  40.4522228
  43.0455446  44.2989969  39.1243005  42.2901773  45.2236509  40.8881617
  41.2956142  45.0862789  40.4638052  42.2670889  44.9920940  42.4040222
  41.7423630  45.8373690  42.8493023  41.6166782  44.1552305  42.6584482
  43.2588530  44.9955320  42.8562307  42.8088236  46.7054462  40.6339264
  43.5623932  46.9303894  41.3886642  43.0904770  46.8211699  39.5873237
  41.9791269  47.3930120  40.7981491  41.2900686  42.4624395  40.1088905
  40.9404469  42.3703098  38.9263368  40.3711653  42.3436594  41.0515642
  40.8126211  42.2050524  41.9493484  38.9569974  42.4291229  40.8757830
  38.7830281  41.6959858  40.0881577  38.2297039  41.9780397  42.1346188
  38.5890937  40.9817600  42.3922443  38.5312891  42.6874828  42.9052258
  36.7051601  42.0016146  42.0534658  36.0681200  42.0150805  41.0197496
  36.0983920  42.0951605  43.1760502  35.1295066  41.8741131  42.9957533
  36.5264297  42.0119095  44.0870667  38.4730387  43.7832975  40.3287458
  38.5741329  44.8112249  40.9679365  37.7480316  43.7982512  39.2224622
  37.6220989  42.8020382  38.1452227  36.7500687  42.2115993  38.4263778
  38.5116792  42.1836233  38.0255938  37.2224426  43.4682989  36.7882347
  36.6837811  42.7408838  36.1809301  38.1278658  43.8955641  36.3572431
  36.3699102  44.5196152  37.4311757  35.4462862  44.0526009  37.7730966
  36.0229921  45.2605391  36.7109108  37.1063232  45.0535440  38.6556768
  37.8954434  45.7226706  38.3126593  36.1358190  45.7905293  39.6295261
  35.8864188  46.9379520  39.5613098  35.6062746  45.0741291  40.6094122
  35.9635806  44.1521549  40.8152962  34.6446157  45.4834747  41.6599846
  34.2158580  46.4322948  41.3374710  33.5135341  44.4395781  41.7130232
  33.1575131  44.3270493  40.6889677  33.9942098  43.5167503  42.0377350
  32.4342442  44.9008799  42.7003622  32.0818281  46.0282612  42.9881096
  32.0855999  43.9243507  43.5214424  31.3365650  44.1701221  44.1528273
  32.5007868  43.0048800  43.4735966  35.3680396  45.7874489  43.0313206
  34.7989106  45.7545900  44.0790319  36.6927838  45.9027529  42.9748344
  37.0818210  45.7717705  42.0520163  37.4606776  46.2567282  44.1593504
  37.3033810  45.5558205  44.9791574  38.9882994  46.0875368  43.9509106
  39.3169928  45.0798941  43.6965227  39.2148852  46.7479372  43.1138706
  39.7855139  46.5720844  45.0555944  40.1560020  45.8065224  45.5008602
  37.2648335  47.6811695  44.5917511  37.0476770  48.5699368  43.7480450
  37.3533487  47.9458189  45.8992577  37.6394105  47.2493219  46.5724277
  37.1064043  49.2391014  46.5582132  36.0583758  49.4925785  46.3985634
  37.2886467  49.1485214  48.0816936  36.7909813  49.9850416  48.5722685
  36.5833759  48.3476210  48.3036280  38.6531568  49.0744114  48.6999607
  39.3650842  47.9668856  49.1059875  38.9712310  46.9782543  48.9218760
  40.6036139  48.3225489  49.5125866  41.2727785  47.7115583  49.9586868
  40.8036661  49.6788788  49.4021893  41.9425154  50.4707718  49.6139526
  42.8675079  49.9989080  49.9108458  41.8631029  51.8410778  49.4622231
  42.6990652  52.4546337  49.7640848  40.6084538  52.3568630  49.1023779
  40.4848433  53.4261847  49.0147352  39.4737291  51.5858412  48.8266802
  38.5400772  51.9747353  48.4479237  39.5763016  50.1744938  48.9384651
  37.8732920  50.3997564  45.9746408  37.4039316  51.5252542  46.1551905
  39.0142369  50.0908375  45.3916454  39.2694879  49.1138315  45.4118299
  39.8808503  51.0942841  44.8288345  40.0021982  51.8926239  45.5609751
  41.1837196  50.4306459  44.4491482  41.0737038  49.5134544  43.8705635
  41.6721487  51.0640574  43.7086582  42.1056080  50.1744556  45.5832529
  41.6101742  49.6003151  46.3662004  43.2511139  49.3335342  45.0369453
  43.8186884  49.8576355  44.2680025  44.0283394  49.1487789  45.7784891
  42.8502512  48.4035397  44.6338177  42.7302313  51.3727760  46.3087368
  43.5001373  51.7610502  45.6419659  42.0461845  52.1908855  46.5343285
  43.3704329  51.1187267  47.1535444  39.2848587  51.8568707  43.5931540
  39.5087147  53.0690479  43.4715748  38.4181213  51.1296320  42.8311443
  38.2831669  50.1591635  43.0762625  37.5423646  51.8325043  41.8690586
  38.1508112  52.5207376  41.2823486  37.0195103  50.8665323  40.8198977
  36.2831187  50.1775169  41.2335205  36.4422250  51.4198303  40.0791502
  38.0745792  50.0945425  40.0862026  38.3551693  48.7894535  40.4859829
  37.8610182  48.2829237  41.3018560  39.3532014  48.0061817  39.8578477
  39.6547389  47.0067787  40.1347399  40.0882196  48.5953093  38.7674761
  41.1672449  48.0002642  38.1997514  40.9888792  47.0664787  38.0662179
  39.8322368  49.9331903  38.4105349  40.4842806  50.4892445  37.7532387
  38.9014673  50.6702948  39.1103458  38.7873077  51.7197609  38.8823128
  36.4552069  52.5949097  42.6086187  36.0321212  53.6328602  42.1059895
  35.7937884  52.0665216  43.6470842  35.9839153  51.1576509  44.0444613
  34.7053909  52.7355194  44.3425226  33.9975262  53.0583191  43.5790920
  33.9525723  51.7326117  45.3331280  34.6818995  51.3302422  46.0361767
  33.2200933  52.3305082  45.8754349  33.3195114  50.6211424  44.6228170
  32.2028399  50.7632732  43.8370943  31.8390059  49.5752144  43.3888292
  31.0215569  49.3503571  42.7197838  32.6070881  48.5935020  43.9606428
  32.5634694  47.5909901  43.8459063  33.5598660  49.2802525  44.6826792
  34.3672872  48.9186478  45.3021240  35.2847004  54.0527916  44.9762058
  34.6006846  55.0590467  44.9851656  36.5591216  54.0685081  45.4733944
  36.9227648  53.1593895  45.7211208  37.2118759  55.3054714  45.9030485
  36.4451003  55.8897686  46.4117241  38.3427167  54.8826361  46.8597984
  37.8570557  54.2380381  47.5924206  39.1181469  54.2635012  46.4087105
  38.8245082  55.7353926  47.3381233  37.6625013  56.1103010  44.6833086
  38.2103133  57.2169209  44.9193192  37.6679325  55.6654739  43.4147978
  36.9969678  54.9287748  43.2498980  38.1887698  56.2241840  42.2000504
  38.1423187  55.4307127  41.4541578  37.3529816  57.4722433  41.7923403
  37.3906875  58.1966162  42.6059532  37.7608109  57.9866982  40.9222174
  35.8777165  57.1896458  41.5587282  35.6387639  56.3765907  40.8732033
  35.3645802  56.9657373  42.4939632  35.2175570  58.4086895  40.9216309
  35.7479739  59.3266535  41.1748219  35.3290248  58.2853651  39.8443794
  33.7823677  58.5463667  41.2036610  33.2809353  57.5878048  41.0701609
  33.5383868  58.8153839  42.2313833  33.1709075  59.5430803  40.2549171
  33.3073759  59.1573143  39.3315196  32.2168183  59.8613358  40.3472662
  33.7489748  60.3711891  40.2419424  39.7181392  56.5711975  42.3452711
  40.1548767  57.6554108  41.9591379  40.5064201  55.6300640  42.8680658
  40.1576519  54.6962070  43.0304480  41.9792128  55.7011700  42.9231644
  42.3326635  56.7245054  42.7968454  42.3036003  55.1829672  44.3245935
  41.9336987  54.1723299  44.4974661  43.3913231  55.1456356  44.3843031
  41.8246603  56.0622549  45.5634069  40.7522202  56.2569189  45.5543804
  41.9827652  55.3896236  46.9730473  41.7597294  56.1504316  47.7210569
  41.2652922  54.5692444  46.9907713  42.9794741  55.0108910  47.1993923
  42.4746275  57.4381018  45.5419302  42.2650480  58.0331898  46.4307785
  43.5536814  57.4105740  45.3903055  42.0943213  58.0419636  44.7180271
  42.6722050  54.8670626  41.8648100  43.9080191  54.6932077  41.9343424
  41.9754982  54.3881035  40.8419418  40.9747219  54.5091009  40.7794905
  42.3859262  53.6608839  39.6657085  43.4065342  53.8975477  39.3649483
  42.4276972  52.1162081  39.9421787  41.4621019  51.8265486  40.3566885
  42.4337769  51.6538048  38.9551425  43.6146355  51.5342808  40.7891846
  43.7445879  52.1041250  41.7092371  43.3334589  50.0303602  41.0084009
  43.0381536  49.5018673  40.1019812  44.1582870  49.4886112  41.4712954
  42.4959421  49.9364519  41.6996670  44.9876738  51.6748667  40.0518847
  44.9505806  51.1720371  39.0855122  45.1212549  52.7232838  39.7852755
  45.7583237  51.2218523  40.6755543  41.4243698  53.9866352  38.5550976
  40.2421713  54.3318415  38.8380051  41.7284489  53.8818502  37.3203468
  42.6584387  53.6089277  37.0362139  40.8983278  54.1025305  35.9922004
  39.8400569  53.9466238  36.2016153  41.3125277  55.5683517  35.4746962
  40.9684706  56.1638498  36.3203406  42.3937559  55.6793404  35.3926730
  40.6840134  56.0034704  34.1799569  41.0393476  57.1151638  33.6725903
  39.7714329  55.3348112  33.5761285  41.2694502  53.0654955  34.9638844
  42.4353075  53.0682325  34.5429659  40.3412342  52.1175051  34.6075988
  39.0867662  51.8238497  35.2478838  38.3259630  52.5799561  35.0540304
  39.2546177  51.7934322  36.3244557  38.6800671  50.3541517  34.7625804
  37.9304767  50.5366039  33.9925623  38.2839894  49.6776247  35.5199003
  40.0361109  49.8369598  34.2320490  39.8308158  49.0267134  33.5324383
  40.5049372  49.3302011  35.0755525  40.7398272  51.0414648  33.6758590
  41.8110085  50.8398247  33.6719751  40.2540445  51.3885832  32.2893214
  39.9773788  50.4268026  31.5495682  40.1527071  52.6524067  31.8691683
  40.5164957  53.3159971  32.5380540  39.6098089  53.0488920  30.5544519
  38.8630056  52.3035955  30.2807403  38.8047075  54.3662500  30.7159829
  38.1935763  54.4439793  29.8167729  38.1149554  54.2613935  31.5534472
  39.6841645  55.4698229  30.8178687  40.1097441  55.4731369  31.6783762
  40.6508684  53.1063938  29.4514418  40.2903318  53.3766699  28.2778573
  41.9269037  52.7770042  29.8595738  42.1373987  52.5331116  30.8168125
  43.0054569  52.6723576  28.8661838  42.6142740  52.6156950  27.8503728
  43.8294840  53.9179611  28.9741778  43.2176638  54.8142910  28.8723612
  44.5346498  54.0794468  30.3521562  43.8237000  54.1986609  31.1697412
  45.3347921  53.3716059  30.5685759  45.0520182  55.0368309  30.2901506
  44.8131084  54.0265608  27.9914618  44.3709469  54.2759180  27.1766543
  43.8249922  51.3970470  29.1278577  43.7795210  51.0296726  30.2951074
  44.5606422  50.8741379  28.1395674  44.5219994  51.1408567  26.7520833
  45.2347279  51.9253731  26.4978147  43.5180950  51.4971447  26.5211296
  44.9429798  49.7468805  26.0803390  45.3640223  49.9367189  25.0930285
  44.0161896  49.1780758  26.0053420  45.8493376  49.0983295  27.0944047
  46.8537474  49.5055437  26.9784498  45.8355093  48.0099058  27.1513963
  45.2754402  49.6869326  28.4117675  44.5735312  48.9043140  28.6997437
  46.4627457  49.8342514  29.4590759  46.6469574  48.9122725  30.1648188
  47.1062708  50.9691858  29.5001888  46.8283749  51.7083168  28.8704586
  48.2541466  51.3414812  30.3738213  49.1002941  50.7006168  30.1259732
  48.8856649  52.7607298  30.1179290  48.0143595  53.4068203  30.2251267
  49.9259806  53.0622387  31.1402059  49.4390535  53.1636000  32.1101189
  50.7065201  52.3052788  31.0635686  50.2764320  54.0787554  30.9613729
  49.4453001  52.8151751  28.6747980  50.2198744  52.0503712  28.6180902
  48.5901976  52.6416349  28.0215168  49.8406744  53.8079405  28.4598470
  47.9536676  50.9401226  31.8481350  48.7256002  50.2919960  32.4901414
  46.7191029  51.1433935  32.3229289  46.1333370  51.7575884  31.7754340
  46.2119102  50.6829166  33.6437201  46.7062283  51.3321304  34.3664050
  44.6620131  50.8845901  33.6380696  44.5015097  51.9597054  33.7184906
  44.2157793  50.5044413  32.7191234  44.0799046  50.2957249  34.8197365
  44.0717030  50.7651567  36.1503959  43.4445333  49.7709942  36.8390393
  43.2911015  49.7094965  37.9063153  43.0002213  48.8081121  36.0558677
  42.7075529  47.9156542  36.4273047  43.5833168  49.0041494  34.8324203
  43.5396862  48.3311701  33.9888620  46.4788151  49.2250443  34.0082669
  46.9356585  48.9998341  35.1328874  46.5216255  48.2780313  33.0274248
  46.2493706  48.5257435  32.0868826  47.0913315  46.9369364  33.2382607
  46.4612484  46.3185167  33.8775206  47.2276592  46.0906792  31.9300485
  47.7696848  46.6960001  31.2034822  48.0086565  44.8124218  32.0160222
  49.0673256  45.0268507  31.8699384  47.8808594  44.1964817  32.9061866
  47.7218485  44.1496944  31.1995459  45.8590603  45.8294439  31.3927913
  45.4216957  46.7815971  31.0924363  45.9534168  45.3252745  30.4310179
  44.8785877  44.9849606  32.2630882  44.2577887  45.6381607  32.8763056
  44.2155600  44.3621445  31.6625905  45.4223919  44.2442846  32.8494143
  48.4672737  46.9131660  33.9974380  48.6609840  46.1157608  34.9491930
  49.4299889  47.7292252  33.6716557  49.0727234  48.2940674  32.9144120
  50.7652664  47.8723240  34.2376518  51.2455416  46.8986559  34.3346739
  51.7239285  48.6933565  33.3361578  51.1381388  49.5639372  33.0411220
  52.6554871  49.0234423  33.7958789  52.0203495  48.0432653  31.9802952
  51.1916590  47.5571156  31.4654875  52.7605629  49.1391802  31.1305761
  52.0995045  50.0046921  31.0859895  53.6736536  49.4283199  31.6509342
  53.0552197  48.7759924  30.1460075  53.0536795  46.9203424  32.1817875
  52.5881052  46.0414171  32.6276875  53.4567833  46.6419840  31.2080669
  53.8208723  47.3208523  32.8444433  50.6762409  48.5091114  35.5737400
  51.5694571  48.2114172  36.3635826  49.6314621  49.3089199  35.9097075
  48.8466263  49.3702602  35.2769494  49.4280481  50.0901270  37.1885467
  50.3586864  50.5561543  37.5123358  48.4836674  51.2021685  36.9905210
  48.5384750  51.6769361  36.0108805  47.4607182  50.8733940  36.8072748
  48.5174799  52.1595526  38.1663132  48.1662369  51.6903925  39.0853405
  49.5509434  52.4626875  38.3341098  47.5870562  53.3498096  37.8705859
  47.8659773  53.7978601  36.9168830  46.5888453  52.9460955  37.7011919
  47.5632048  54.3264818  38.9444947  48.3523130  54.3398285  39.5747542
  46.5327835  55.0981283  39.2337942  45.3869104  55.0480604  38.6370754
  45.2368450  54.5457602  37.7737808  44.6724796  55.7167768  38.8870835
  46.6211510  55.9946537  40.1459455  47.4735689  56.0625982  40.6834078
  45.8266592  56.5659523  40.3959417  48.8940477  49.1624689  38.3066702
  49.3927383  49.1569328  39.4483876  48.0123711  48.2804108  37.9669404
  47.6604176  48.4043312  37.0283937  47.6451874  47.0554113  38.7485242
  47.0960331  47.3360014  39.6473026  46.5715933  46.2514210  37.9788542
  47.0094681  46.0151672  37.0090365  46.4220047  45.3302622  38.5420442
  45.1696396  46.9226885  37.7433419  44.7637033  47.3843956  38.6434245
  45.3167725  47.7496195  37.0486212  44.2479324  45.9281206  37.0451379
  44.5781279  44.7918320  36.6223264  43.0824661  46.1991692  36.9700027
  48.8812494  46.1633873  39.1112399  49.0857887  45.8818769  40.2927446
  49.7201824  45.8664846  38.1258225  49.3872786  45.7541227  37.1789074
  50.9615517  45.1484299  38.3096838  50.7123566  44.2369509  38.8530087
  51.5925598  44.7158432  37.0358562  51.7890310  45.6688738  36.5446997
  52.9050779  43.9623547  37.3755574  53.3220196  43.4032059  36.5379357
  53.6393213  44.6224070  37.8374195  52.7626705  43.2257032  38.1662273
  50.6116486  43.8322926  36.1925292  50.6558037  42.8670168  36.6969013
  49.6018219  44.2405558  36.1515737  51.0936642  43.7365580  34.7470331
  52.1301460  43.4143114  34.6472192  50.3052235  43.1840897  34.2359209
  51.0605717  44.7702169  34.4027233  51.8898678  45.8381128  39.2520499
  52.2852373  45.2421522  40.1954031  52.2611856  47.0943451  38.9502668
  51.7474937  47.5610542  38.2165051  53.3232117  47.7991295  39.8126483
  54.3025398  47.3489380  39.6503711  53.5171509  48.8011837  39.4300556
  53.0507660  47.7999687  41.3446760  53.9534664  47.5403929  42.1249962
  51.7490292  47.9705811  41.7140818  51.1192846  48.1910515  40.9558535
  51.1697865  48.0549049  43.0016088  51.7359114  48.7027645  43.6708450
  49.7980022  48.6491632  42.7356291  49.3362236  48.1981945  41.8572855
  49.1439104  48.3499098  43.5546017  49.7462225  50.1938152  42.6384926
  50.1414299  50.4619694  41.6586924  48.2832098  50.5281401  42.5922251
  48.2508230  51.6069698  42.4399805  47.8814459  50.0649691  41.6910267
  47.8718090  50.2197790  43.5533524  50.4933691  50.9733105  43.7489605
  50.2645206  52.0220804  43.5597467  50.2482271  50.6339407  44.7553539
  51.5576077  50.8441019  43.5519648  51.0850143  46.6838932  43.7369871
  50.8094549  46.6385937  44.9479342  51.2065268  45.5704021  42.9549599
  51.3151789  45.8094120  41.9796801  51.0922337  44.1312885  43.2482910
  51.3666868  43.5825348  42.3473787  52.0629930  43.8154459  44.4359112
  51.8510389  44.4161940  45.3203773  51.9687796  42.7611876  44.6962261
  53.5525703  43.9771557  43.9609528  53.7102842  43.1952143  43.2181215
  53.7784195  44.9377298  43.4979296  54.5029593  43.8116980  45.1436281
  54.3176985  44.5890045  45.8849621  54.3372393  42.8404284  45.6097651
  55.8761692  43.7725973  44.6737909  56.2307739  44.5339346  44.1127968
  56.7760611  42.8097725  44.9411154  56.7101240  41.9428110  45.9037924
  56.0933781  42.0627451  46.6945791  57.5124454  41.3353968  45.9899807
  57.9243374  42.7197170  44.3227673  58.1759977  43.2484198  43.4998178
  58.6163473  42.1327019  44.7662020  49.6864414  43.7514448  43.4785080
  49.4729233  42.8780556  44.2928934  48.7955570  44.4519472  42.7887774
  49.2238140  45.0486135  42.0954657  47.3544598  44.1251755  42.8035927
  47.0799971  43.9637899  43.8460588  46.4541245  45.3142023  42.4432850
  46.4399529  45.4929066  41.3681269  45.4517078  44.9591255  42.6824141
  46.6885138  46.6130543  43.2535887  47.5425577  47.1486950  42.8391027
  45.5280733  47.6076746  43.1355953  45.9036064  48.4772253  43.6750078
  45.4400682  47.8300190  42.0721483  44.6623325  47.1435595  43.6080217
  47.0562506  46.3999796  44.7635746  47.2221041  47.3664522  45.2395153
  46.2909698  45.7396126  45.1714563  47.9859877  45.8313227  44.7456741
  47.0248032  42.8847313  41.9420242  46.2278652  42.0383501  42.3409176
  47.6984692  42.7475977  40.7474947  48.3944225  43.4749556  40.6656837
  47.6040506  41.6074085  39.8010683  46.8875837  40.9417105  40.2823305
  47.2090864  42.0445824  38.3903861  48.0240917  42.5484753  37.8708053
  46.9721556  41.1423016  37.8266001  46.0324907  42.8660488  38.3654022
  45.7690668  43.0670834  37.4644065  48.9835644  40.8822012  39.6467638
  50.1168442  41.4296627  39.5176458  48.8852024  39.5424247  39.8373485
  47.9842615  39.1007423  39.7219372  50.0285482  38.6271858  40.2594376
  50.8112431  38.9428926  39.5696354  50.4054785  38.9508224  41.7031622
  51.2219048  38.2609677  41.9168472  50.6168270  40.0113821  41.8397188
  49.4108295  38.7989712  42.8443861  49.4452858  37.7414823  43.7750053
  48.2900858  37.7822542  44.4483042  48.0307674  37.1643949  45.2953005
  47.5280380  38.7711573  44.0044546  46.6087961  38.9602590  44.3777323
  48.2474279  39.4663358  43.0029488  47.8484392  40.2658844  42.3963785
  49.7634983  37.1626878  39.9392438  48.6412048  36.7218828  39.5472217
  50.8517265  36.3559675  39.9894476  51.6596222  36.6842747  40.4989767
  51.0467911  35.0051308  39.5580006  50.1840401  34.6932077  38.9693809
  52.2580433  34.9813557  38.6374235  52.9413939  35.5267286  39.2883468
  52.0837450  35.4578829  37.6727247  52.7476978  33.2817626  38.3760977
  51.0890341  34.0562034  40.7590580  52.1361780  34.0351963  41.4829683
  50.0169373  33.2291889  40.9874153  49.2058611  33.2110405  40.3858089
  50.1394224  32.2780299  42.1020746  50.5693340  32.8970647  42.8895187
  48.7747860  31.6597772  42.3836756  48.8396645  30.9265351  43.1875706
  48.0913258  32.4585295  42.6717424  48.3889341  30.9830856  41.1433697
  48.3520222  31.5483546  40.3683138  51.1773014  31.1442637  41.9093943
  51.5296936  30.4673314  42.8647900  51.7858601  30.9834623  40.7303667
  51.5567923  31.5922713  39.9577212  52.8667307  30.0554013  40.6176901
  52.6559258  29.2565966  41.3287306  52.7633715  29.3853903  39.2257190
  51.8950224  28.7283754  39.2747521  52.6169682  30.1190114  38.4329581
  53.9098692  28.4537125  39.0451455  53.8741064  27.1434641  39.5359254
  55.1144505  26.6709900  39.0955281  55.5414820  25.6919551  39.2553282
  55.8787918  27.6219559  38.4666133  56.6856384  27.3708630  37.9133916
  55.0940323  28.7565541  38.4313726  55.3147316  29.7105837  37.9758263
  54.2518663  30.7111645  40.9823084  55.1379108  29.9216962  41.4025879
  54.3362761  32.0244455  41.1194611  53.5377455  32.5794792  40.8467197
  55.5048609  32.8518462  41.5579271  56.3162613  32.1395707  41.4082861
  55.5772018  34.0502763  40.5996227  56.1488485  34.8484945  41.0730934
  54.5831442  34.4750071  40.4598141  56.5267515  33.6516047  39.1189599
  55.5137300  33.3331990  43.0445147  56.4523315  32.9288316  43.7281704
  54.4114542  33.9847970  43.5495996  53.8327694  34.4935846  42.8966427
  54.0776396  34.4047141  44.8838520  54.9490213  34.2632818  45.5232239
  54.0104246  35.9631801  44.8356152  53.5221815  36.3599133  45.7257366
  55.3902721  36.6275477  44.6332216  55.7429647  36.5454984  43.6051273
  55.2464151  37.6974106  44.7842264  56.0494041  36.1487985  45.3574085
  53.1498909  36.4938545  43.6837244  53.6180258  36.3371325  42.7119255
  52.1056604  36.1828041  43.6530876  53.2706404  37.5696945  43.8105679
  52.7891207  33.6693430  45.3571606  51.6690159  34.0753889  45.1331282
  52.8664637  32.5362825  46.1189556  54.0463638  31.7781949  46.2284327
  54.6780634  32.2947884  46.9510603  54.6064854  31.6667533  45.3000259
  53.6461639  30.3825474  46.6244841  54.3502903  29.9984407  47.3625612
  53.5895538  29.7947407  45.7083082  52.2844267  30.5452681  47.2877359
  52.3421955  30.8528471  48.3318424  51.6816092  29.6460891  47.1604776
  51.6848469  31.6884923  46.5046358  51.2312937  31.2290168  45.6264162
  50.5596828  32.3754215  47.2743559  49.3716908  32.0587134  47.0841694
  50.8347607  33.4430838  48.0357122  51.7740822  33.8137269  48.0155039
  49.8539591  34.4280124  48.6049700  49.0180445  34.5849633  47.9232740
  49.4347429  33.8808823  49.9818563  48.8495588  32.9689479  49.8633862
  50.3550339  33.6054969  50.4969645  48.5972071  34.9114180  50.7229614
  49.0668964  35.8944798  50.7559156  47.7125072  35.0414824  50.0996733
  48.3257866  34.6028256  52.1937656  49.2453575  34.3913317  52.7394438
  47.9829884  35.4654098  52.7652025  47.2908449  33.4816933  52.3525810
  47.4114799  32.7477980  51.5557432  47.3022366  33.0112958  53.3357906
  45.8616638  33.9256597  52.1797705  45.5525875  34.4194174  53.0048609
  45.7910299  34.6255088  51.4549780  45.3012037  33.1008387  52.0195961
  50.5490637  35.7930875  48.6490297  51.7716742  35.9580016  49.0056801
  49.8783922  36.9012284  48.3669329  48.8872051  36.7789054  48.2163095
  50.3403425  38.2837582  48.5883951  51.0304642  38.1761503  49.4252062
  51.2568426  38.7427783  47.4022102  52.0570612  38.0034137  47.3691416
  50.7086420  38.5929036  46.4720917  51.8846798  40.1346779  47.6119137
  51.1138821  40.8937263  47.4783897  52.5371313  40.4949808  48.9561081
  51.8487167  40.4456949  49.7997713  53.2092619  39.6761680  49.2127800
  53.0360317  41.4599848  48.8668585  52.8961420  40.2309704  46.4756393
  53.2117176  41.2703800  46.5658474  53.8167858  39.6755433  46.6545820
  52.3839664  40.0468254  45.5312538  49.2900372  39.2993188  48.8125181
  48.4097528  39.4696712  47.9303551  49.3124962  40.1753187  49.8637295
  50.0602388  40.0445747  50.5299759  48.2000208  41.1254358  50.1880217
  47.6455879  41.2129927  49.2536545  47.3355293  40.6425047  51.3894033
  48.0228615  40.5791950  52.2329998  46.6412687  41.4305782  51.6810417
  46.6978645  39.2615175  51.2907839  47.5165749  38.5604954  51.1283350
  46.1395884  39.0386558  52.2000456  45.6805134  39.2973781  50.1593161
  44.9536371  40.2818680  49.9999380  45.6681442  38.4083509  49.3301439
  48.8453102  42.4693823  50.4707146  49.3096495  42.7613020  51.5923357
  49.1155005  43.3773804  49.4868279  48.8420486  43.2650280  48.1007862
  47.7596092  43.2389641  47.9752970  49.2212296  42.3022175  47.7582693
  49.4770336  44.3805504  47.3893738  48.8138103  45.1491690  46.9925547
  50.0182152  43.9567089  46.5434551  50.3689289  45.1259184  48.4243298
  50.3463078  46.2101698  48.3148623  51.3937759  44.7598553  48.3627892
  49.6782637  44.5989847  49.7329998  50.3682375  44.4698524  50.5668831
  48.6740541  45.6705141  50.2442122  49.1708899  46.7231846  50.7517767
  47.3721123  45.4919147  50.1467228  47.0603561  44.5716143  49.8711109
  46.3777399  46.5147543  50.4009914  47.0116329  47.2061396  50.9562111
  45.9465742  47.1639204  49.0173435  45.1283884  47.8580761  49.2092276
  47.0826387  47.9826546  48.4062386  47.8379774  48.1624365  49.1712523
  47.5604153  47.5336838  47.5354576  46.6198635  48.9122915  48.0750179
  45.3284645  46.0898495  48.1313515  46.1239100  45.4463339  47.7554893
  44.5357466  45.5920172  48.6897945  44.6363497  46.6525269  46.8970871
  45.3267527  47.3546553  46.4296818  44.4268370  45.9222031  46.1155272
  43.7058973  47.1664619  47.1384001  45.2266312  46.0374165  51.2393951
  44.9531174  44.8690319  51.4181709  44.4109964  46.9567442  51.7441463
  44.6607637  48.3998871  51.9256592  44.8629618  48.9217806  50.9903288
  45.5081320  48.5393763  52.5969267  43.4580994  49.0899038  52.4861479
  43.2305193  49.9884033  51.9125605  43.6187124  49.4113731  53.5152102
  42.3723316  47.9842949  52.4901581  41.6257954  48.1395149  51.7112494
  41.8769741  47.8056955  53.4445286  43.0586195  46.6330147  52.1696663
  43.2007504  46.0374546  53.0714464  42.2331619  45.8073807  51.1532164
  42.2458363  46.1059952  49.9446440  41.4443207  44.8873806  51.6322088
  41.4979315  44.7277164  52.6280642  40.3656864  44.1673660  50.9882259
  40.6371164  43.8719654  49.9747372  40.1117373  42.7666998  51.6218472
  39.4634175  42.1693230  50.9808159  41.0739422  42.2548628  51.6390228
  39.5231652  42.6890182  53.0596924  38.6889362  43.3832502  53.1607342
  39.1348481  41.6732025  53.1333113  40.6213474  42.8393078  54.1680765
  40.8967781  41.8436623  54.8409414  41.1662245  43.9557171  54.2491341
  39.0331173  44.9911976  50.9431839  38.2194710  44.8527336  50.0413942
  38.9594436  45.9852028  51.8808222  39.7794485  46.0459614  52.4673414
  37.9338145  47.0824337  52.0844126  38.0081868  47.7683926  51.2405920
  36.5896058  46.4636707  52.1201706  36.4145517  45.6970119  51.3653898
  36.5141749  45.9370708  53.0715418  35.3658319  47.2996759  52.0566750
  34.7868776  47.9593563  53.0490780  35.1310754  47.9425430  54.0726233
  33.6705136  48.6321115  52.6277781  32.9908442  49.1766644  53.1392574
  33.5059547  48.5617208  51.2836599  32.6507783  49.1228151  50.3564167
  31.9344187  49.8498631  50.7094479  32.6574421  48.6934853  49.0106773
  31.9350886  49.1052008  48.3213997  33.5354352  47.6646852  48.5961533
  33.3930588  47.2004700  47.6314592  34.3908691  47.0918798  49.5636272
  34.9549699  46.2269115  49.2473745  34.4925809  47.6129198  50.8874512
  38.3615470  47.8443766  53.4075069  38.8795114  47.1923256  54.3000650
  38.1786537  49.1805363  53.4891891  37.5542021  50.0857019  52.5388765
  36.4816141  50.0990391  52.7324677  37.6935697  49.7857714  51.5002584
  38.3861709  51.3490343  52.6235580  37.8742623  52.1685457  52.1191216
  39.3805695  51.1798048  52.2104836  38.3625913  51.4921236  54.1385031
  37.4203444  51.9504595  54.4388342  39.1416478  52.1959591  54.4314194
  38.5816145  50.0632524  54.6171808  39.6384978  49.8536968  54.7820663
  37.7117682  49.6951771  55.8586740  36.4596629  49.5849419  55.8137369
  38.3263922  49.4407368  57.0566845  39.7833228  49.5263100  57.3470831
  40.1696587  50.2747631  56.6552258  40.1791191  48.5296869  57.1516657
  39.8861623  49.8437643  58.8022327  39.6730614  50.9047222  58.9328480
  40.8560514  49.6390629  59.2555714  38.7028885  49.1065788  59.3603659
  38.3761835  49.6296167  60.2591419  39.0696454  48.1016970  59.5696449
  37.5941110  49.1768122  58.3354712  37.0372367  48.2411242  58.3852959
  36.4972425  50.1620722  58.6568022  36.8378949  51.3481998  58.6677217
  35.3018355  49.5896339  59.0296602  35.2657461  48.5951471  59.2022657
  34.0549898  50.3216076  59.2455482  33.7067556  50.7538557  58.3074713
  33.0178690  49.2266130  59.6787691  32.9593205  48.3940315  58.9777088
  33.4017015  48.7789774  60.5955029  31.5400243  49.6268749  59.9302149
  31.4782715  50.3027534  60.7831430  31.0904670  50.4910707  58.7219238
  31.6673875  51.4158535  58.7284946  31.3213897  49.8823833  57.8476954
  30.0350237  50.7544470  58.7910461  30.6504893  48.3977079  60.2631426
  31.2117887  47.7115536  60.8973694  29.8611403  48.7873173  60.9059763
  30.4080629  48.0048609  59.2757225  34.1348076  51.4672422  60.3385210
  33.6085725  52.5450897  60.0422430  34.9746728  51.3802481  61.4106512
  35.3099751  50.4371023  61.5453482  35.3518820  52.4665403  62.2910786
  34.4237041  52.8057051  62.7510309  36.4273715  51.9208097  63.2440662
  37.1048331  52.7389526  63.4885931  35.9437299  51.5346146  64.1413069
  37.0442295  51.1407089  62.7979374  35.7514334  53.7621021  61.5990543
  35.1569200  54.7876453  61.8827820  36.8005204  53.7923431  60.7278156
  37.1255732  52.9272509  60.3203201  37.1496367  55.0128460  59.9439621
  36.9374037  55.9047794  60.5334759  38.6277962  55.0528574  59.6590090
  38.7374163  55.8762836  58.9532804  39.1381168  55.0681305  60.6220436
  38.9106512  53.8297272  59.0395641  38.6030984  53.9661980  58.1404591
  36.3212085  55.1396036  58.6265373  36.4180875  56.1985064  58.0396128
  35.7561898  54.0434790  58.1468153  35.9403348  53.1691980  58.6177969
  35.0408626  54.0894556  56.8433714  35.6445098  54.7786665  56.2528563
  35.0663972  52.6436520  56.2509441  36.0899663  52.2958851  56.1114454
  34.5433760  51.9172239  56.8729258  34.2464447  52.5393772  54.6462059
  35.0397253  53.4072161  54.0118027  33.6122680  54.6508408  56.7943525
  33.2712364  55.5203056  55.9930754  32.7742076  54.1553211  57.7310658
  33.1686974  53.4916544  58.3822393  31.3173652  54.3800688  57.8250742
  30.9512615  53.9117622  58.7387228  31.0736799  55.4369211  57.9336548
  30.4864597  53.6878014  56.6991854  29.2608261  53.4935808  56.6937113
  31.1429572  53.1056929  55.6608868  32.1480107  53.2053518  55.6549549
  30.5528831  52.4011469  54.5245647  29.4709134  52.4123240  54.6561718
  30.9807372  53.0511379  53.1070280  31.8618608  52.5452185  52.7123547
  29.9263692  52.6846266  52.0673800  29.7320199  51.6154861  51.9821262
  29.0216446  53.2020330  52.3865461  30.4106236  52.8394079  51.1032009
  31.2385297  54.5309639  52.9923344  31.6219664  54.8294497  52.0166397
  30.3677440  55.1695347  53.1408739  32.0599604  54.7257471  53.6818361
  30.9497595  50.8456945  54.5053673  32.0660520  50.5030346  54.1573048
  29.9915409  49.9488735  54.9465895  28.7383676  50.1074696  55.6615829
  27.8514695  50.2549601  55.0453377  28.7568808  51.0033178  56.2822437
  28.5389924  48.8979816  56.4939737  27.5472212  48.6559105  56.8759298
  29.0812373  48.9854622  57.4354744  29.1358709  47.7195692  55.6517935
  28.3619404  47.3336124  54.9883413  29.5515800  46.9512272  56.3036680
  30.2197576  48.4831047  54.8027515  31.2040353  48.2041979  55.1789236
  30.1723266  47.9715300  53.2891655  29.5921779  48.6228657  52.4398470
  30.7720256  46.8057108  53.0642462  31.4490223  45.9208012  53.9655638
  30.8631158  45.5443764  54.8040819  32.2963285  46.3838339  54.4713020
  31.8641114  44.6673632  53.0891705  31.1639500  43.8322449  53.1104374
  32.8626275  44.3889427  53.4261417  31.8341279  45.1013184  51.7262173
  31.5792656  44.3375778  50.9914732  32.8258491  45.5040932  51.5204000
  30.8019233  46.2868214  51.6575098  31.2492800  47.0240211  50.9907913
  29.4292545  45.8659554  51.1376905  28.7949896  44.9292755  51.5827274
  28.9711285  46.5466070  50.0831556  29.5108509  47.3398685  49.7676611
  27.8154492  46.2174273  49.2511034  27.7458453  47.0320034  48.5301828
  28.0911899  44.9122143  48.4919453  28.0688381  44.0253353  49.1252279
  27.3039436  44.6961164  47.7696943  29.3358374  44.9981499  47.6845837
  30.5858278  44.4849014  48.1255293  30.6412792  43.9983320  49.0881157
  31.7348003  44.7451019  47.3935986  32.6846695  44.3335867  47.7014971
  31.6883898  45.5164576  46.2689114  32.5906372  45.8294868  45.7645655
  30.4958153  45.8941174  45.7153034  30.4057217  46.5265512  44.8444891
  29.3098283  45.6234550  46.4034700  28.3694506  45.9223843  45.9644604
  26.4826775  46.3292837  49.9826431  25.5450034  45.6053448  49.7314596
  26.3805294  47.2435570  50.9677792  27.1684003  47.8528500  51.1354780
  25.4312873  47.1526289  52.1021080  24.5044208  46.7976427  51.6515398
  25.8238435  46.1130524  53.2022476  26.8286037  46.3984728  53.5138512
  25.2294850  46.4073324  54.0672588  25.6976986  44.6019888  52.9640245
  26.3841391  44.2313480  52.2027636  26.0454631  44.0424681  53.8324118
  24.3437767  44.0756130  52.5357246  23.4138870  44.8163795  52.4935246
  24.1986156  42.8200960  52.1987486  23.3898020  42.4696398  51.7056894
  25.0758123  42.3206186  52.1648359  25.1347136  48.5765982  52.6099062
  25.9983277  49.4838572  52.3887682  23.9383817  48.9079189  53.1350946
  23.2304525  48.1877470  53.1520224  23.6442542  50.3374720  53.4881449
  23.5747719  50.9747314  52.6065683  22.1573758  50.3310919  54.0807390
  21.8088627  51.3375902  54.3122435  21.5267897  49.8662090  53.3228827
  22.0408320  49.4954348  55.3995275  22.4655604  48.4992123  55.2760696
  22.5883102  49.9806213  56.2075901  20.5578089  49.4055319  55.7705832
  20.1241493  50.3859949  55.9674168  20.1060367  48.9763880  54.8762512
  20.4174495  48.6108065  57.1126366  21.0052252  49.2316532  57.7887821
  19.3904006  48.6224699  57.4775124  20.8136749  47.2086334  57.0237255
  21.7259574  46.9943810  56.6469717  20.8498263  46.7220354  57.9080439
  20.0921249  46.7666578  56.4722490  24.6920252  51.0117960  54.3975687
  25.2835894  50.3871441  55.3055143  25.1304841  52.2460699  54.1103458
  24.7845173  53.1055403  52.9875374  23.7674165  53.4833050  52.8831339
  24.9876332  52.4992085  52.1048069  25.7565045  54.3271828  52.9092979
  25.2712274  55.2829647  52.7116108  26.4852238  54.1789913  52.1123600
  26.3759756  54.3625212  54.3031693  25.9650421  55.2091026  54.8531961
  27.4513245  54.5275450  54.2361403  26.1492205  52.9337454  54.8574591
  27.0331645  52.3311377  54.6486282  25.7408190  53.0176783  56.3838387
  24.6368241  53.3854532  56.6627264  26.5871906  52.6511431  57.3274326
  27.5022173  52.3070383  57.0736217  26.3357711  52.5683308  58.8149786
  25.4590106  51.9480181  59.0010309  27.5854826  51.9016504  59.4321728
  27.4811196  50.9033966  59.0070963  28.4260082  52.4563885  59.0151787
  27.6839185  51.6326427  60.9230137  28.5385728  50.9822798  61.1092854
  28.0524588  52.8960705  61.6956186  28.3004546  52.6157665  62.7193499
  28.8955045  53.4806108  61.3272667  27.1650243  53.5261250  61.7555714
  26.3520789  51.1017084  61.4693928  26.4485621  50.9397364  62.5429630
  25.5450821  51.8220615  61.3354445  25.9490299  50.2570820  60.9105873
  26.1204720  53.9399052  59.3138790  25.1790524  54.1857433  60.1064444
  26.9560361  54.8815918  58.8881445  27.6547933  54.5598888  58.2336664
  26.7131734  56.3881159  59.0838718  25.6860495  56.5957308  59.3838978
  27.5720787  56.8255997  60.2281761  27.2981215  56.1656284  61.0512733
  29.1207790  56.8229389  60.0268126  29.4376111  57.3912477  59.1523170
  29.5716953  57.2350550  60.9295511  29.4061637  55.7821608  59.8737192
  27.3679757  58.1775570  60.6210136  26.4925981  58.5714102  60.6351662
  26.9079399  57.2553873  57.7808046  27.5965500  56.8401718  56.8801975
  26.3268757  58.4307814  57.7756119  25.9149265  58.7329674  58.6468649
  26.6216087  59.3706322  56.6521025  26.3796973  58.8619566  55.7189226
  25.8227420  60.6255436  56.8175888  24.7869515  60.4398584  56.5334082
  25.8792925  60.8242273  57.8878355  26.2214875  61.7512321  56.0695410
  25.4267526  62.2660685  55.9116220  28.1177831  59.8384476  56.7789793
  28.5803795  60.2139473  57.8873730  28.8000131  60.0167704  55.6672049
  28.4827876  59.5198727  54.3308783  27.5872302  60.0318289  53.9787769
  28.3440995  58.4387398  54.3255854  29.7436428  59.8240995  53.5846329
  29.7484612  60.8529568  53.2247257  29.9346662  59.2218542  52.6964235
  30.8636665  59.8000813  54.6233749  31.6731763  60.4659271  54.3243074
  31.2440276  58.8188076  54.9071503  30.2359843  60.3306723  55.8372402
  30.6586719  59.8705244  56.7303801  30.5241084  61.7940712  55.8704424
  31.5848017  62.2419167  56.3246107  29.5283127  62.6936054  55.7633734
  28.6284065  62.3605108  55.4482126  29.4676304  64.0326405  56.3360786
  30.4338217  64.4346189  56.0311413  28.3442473  64.8102474  55.6502819
  27.4492288  64.1904736  55.7043505  28.1161404  65.7096910  56.2221861
  28.7667418  65.0697041  54.3178797  28.7476277  64.2028904  53.9057207
  29.4330955  63.9733028  57.8931189  30.2670264  64.5698023  58.5198975
  28.5064554  63.1928062  58.5345316  27.8522205  62.6884890  57.9533768
  28.4789920  63.0973816  59.9997234  28.3449745  64.1126919  60.3729343
  27.2962713  62.1806002  60.5284834  26.6550159  62.0240259  59.6610880
  27.7007842  61.2120104  60.8222532  26.5141129  62.7770424  61.6394806
  26.0485888  63.6960840  61.2834454  25.7060099  62.1071863  61.9333458
  27.3037291  62.9285908  62.8805399  27.6620770  61.9469738  63.1905699
  28.2084870  63.5363483  62.8685045  26.4940000  63.4141111  63.9992571
  25.5532026  63.6621952  63.7282324  26.7452097  63.5646725  65.2650118
  27.8872252  63.3056116  65.8993578  28.6499143  62.9357576  65.3501606
  27.9123163  63.2818317  66.9087648  25.7956481  63.9937687  66.0597801
  24.9636078  64.3300295  65.5963802  25.9507298  64.1492367  67.0456219
  29.8246527  62.5991488  60.5827761  30.2882981  63.1706715  61.5746546
  30.4262877  61.5320110  60.0007248  30.0248003  61.0042715  59.2388821
  31.6789150  60.8964014  60.4024506  31.4739704  60.5578995  61.4180851
  31.9489646  59.6541119  59.5001507  31.1858130  58.8773823  59.5490170
  31.8759489  60.1043081  58.5101557  33.2390809  58.8477945  59.7652149
  34.0595913  59.5338488  59.5549870  33.3449554  58.4178114  61.2140799
  34.2379069  57.8087616  61.3547707  33.3449054  59.2476940  61.9207573
  32.4085784  57.9056549  61.4354324  33.3517003  57.5882959  58.9025164
  34.3699074  57.2744083  59.1323757  32.6381564  56.8041468  59.1556358
  33.2103443  57.8393745  57.8512907  32.9284453  61.8437386  60.2073193
  33.8334632  61.8392229  61.0218048  32.9537606  62.5821257  59.0881348
  32.0800924  62.5573397  58.5819817  33.9593959  63.6567974  58.8285494
  34.9573565  63.2384157  58.6976719  33.6714315  64.3194532  57.5117922
  32.6223850  64.6122408  57.4684429  34.3148470  65.1932049  57.4084806
  33.9340878  63.3333921  56.5448761  33.1021333  62.9603720  56.2443590
  34.1548467  64.7227144  59.9342728  35.2009773  65.2653265  60.0032854
  33.1205392  64.9920034  60.7944965  32.2376132  64.5403624  60.6032801
  33.3229470  65.7284117  62.0287228  33.6383438  66.7084074  61.6706228
  31.9111061  66.0169840  62.6625919  31.1459661  66.2226868  61.9140291
  31.5189862  65.1553822  63.2029486  32.0083427  67.1302176  63.7344122
  32.8413033  66.9479799  64.4134378  32.1728349  68.0017471  63.1007910
  30.6179070  67.2777891  64.5521784  30.4711103  68.2309198  65.0602150
  29.8789382  67.3036528  63.7513256  30.4322028  66.1186934  65.4558277
  30.5868959  65.2191925  65.0233173  30.2344418  66.1325884  66.6870022
  30.1194644  65.0558043  67.3673153  30.5555272  64.2412567  66.9593191
  29.8431206  65.1813412  68.3306313  29.9432468  67.2300434  67.3530674
  29.8209620  68.0428123  66.7660809  29.6385217  67.2637177  68.3154106
  34.2518997  65.1279926  63.0520964  34.9643922  65.9380674  63.6494255
  34.2871380  63.8420200  63.1582022  33.6969161  63.3158493  62.5298023
  35.2278829  63.1825399  64.0446997  35.1824617  63.7687159  64.9625492
  34.8302078  61.6992092  64.2724085  34.9518490  61.0754299  63.3868599
  35.5706620  61.2760115  64.9511814  33.4438014  61.2897730  64.8103714
  33.2209611  60.1057529  65.1350975  32.6327229  62.2148752  65.0332069
  36.6686344  63.3113480  63.5586023  37.5474262  63.3130980  64.4137383
  36.8506241  63.3609486  62.2038889  36.0970831  63.5790396  61.5677118
  38.2041955  63.3923292  61.6378641  38.9192510  62.9368067  62.3229218
  38.1311464  62.6381063  60.2710152  37.4325728  63.0630875  59.5502615
  39.1380548  62.7385759  59.8658752  37.7602077  61.1308289  60.3244543
  37.4710178  60.3787518  59.2233181  37.0526195  59.2079973  59.7043848
  36.8175411  58.2973766  59.1734362  37.0587969  59.1892767  61.0192490
  36.6970110  58.4213734  61.5665483  37.4765658  60.4028797  61.4220572
  37.5283170  60.7222223  62.4524641  38.6073303  64.8400402  61.3295269
  39.6341610  64.9746752  60.6286573  37.9305434  65.8109713  61.8664169
  37.1775603  65.5015230  62.4642086  38.1831551  67.2489166  61.5839672
  38.2804179  67.2807121  60.4987812  36.9864106  68.1610584  62.0546770
  36.1061120  67.8523397  61.4908791  36.7456627  67.8801632  63.0799770
  37.1553755  69.2282867  61.9112492  39.5583940  67.6636887  62.0205021
  40.0494385  68.7782526  61.6966629  40.2007055  66.9082832  62.9085207
  39.7558665  66.0876179  63.2941675  41.5569067  67.1278572  63.3441401
  41.8739653  68.1572819  63.1772232  41.5640306  66.9314003  64.9423361
  42.5816822  67.1436214  65.2701283  40.5998039  67.8761578  65.6377554
  39.5643973  67.7605486  65.3173304  40.7040405  67.8335476  66.7219257
  40.8606148  68.9055252  65.3918505  41.1428738  65.6866693  65.3635931
  41.9529200  65.3247404  65.7302380  42.6951551  66.3418150  62.5955343
  43.8399076  66.6263533  62.9574156  42.5330210  65.4661465  61.6598845
  41.6031551  65.2716923  61.3168907  43.6010599  64.9111223  60.8850288
  44.3195534  64.5825243  61.6359520  42.9823589  63.7374067  60.0355387
  42.1499300  64.1717863  59.4819355  43.6370134  63.4088135  59.2283440
  42.4508476  62.5560379  60.7944727  41.5272236  62.7474594  61.3407183
  42.2361088  61.4254808  59.8277855  43.1795263  61.1855459  59.3373823
  41.8629742  60.5956364  60.4279804  41.4423180  61.7551374  59.1574717
  43.4972143  62.0944452  61.8355894  43.2447910  61.0740280  62.1239281
  44.4830179  61.9295931  61.4007187  43.5163975  62.8147221  62.6534748
  44.1816521  66.0452032  60.0846815  43.4590340  67.0210934  59.7458124
  45.4357719  66.0757113  59.7466516  45.9962225  65.2910709  60.0472212
  46.1492920  67.0970011  58.9603138  45.9777021  68.0736542  59.4128752
  47.6831818  66.8101406  58.9372778  48.1240368  67.7309322  58.5553312
  48.0773592  66.6819668  59.9453926  48.1671190  65.6270504  58.1343031
  48.3184719  65.6400728  56.9440794  48.2240009  64.4920444  58.8105774
  48.5476732  63.6933947  58.2838011  48.2321024  64.4786358  59.8204565
  45.5040884  67.2090864  57.5655985  45.1889753  66.1467028  56.9827938
  45.2852917  68.3705044  57.0089436  45.3800344  69.1880703  57.5943565
  44.5232582  68.6562681  55.8069563  43.4559488  68.7243986  56.0174656
  44.7651625  69.6567249  55.4482508  44.5913029  67.6516581  54.6566868
  43.6179161  66.9621944  54.3177652  45.7805490  67.3986626  54.1477108
  46.5784121  67.9845715  54.3482876  45.9675837  66.4205122  53.0982018
  45.3360939  66.6407585  52.2374964  47.4203396  66.4869213  52.5961399
  48.0360508  66.2570238  53.4657049  47.6371288  65.7935619  51.7835140
  47.6763916  67.4571276  52.1704149  45.5682373  64.9602222  53.5680914
  44.9952745  64.2330790  52.7601910  45.8332396  64.5145750  54.8075104
  46.0981417  65.2426291  55.4554844  45.5116034  63.1601191  55.2981281
  45.8375645  62.4313593  54.5559978  46.3251352  62.8359795  56.5191650
  47.3130274  62.6752615  56.0874987  46.2096071  63.6736822  57.2069168
  45.9362078  61.5539169  57.2591448  44.8870611  61.5802240  57.5535870
  46.1893082  60.2973604  56.3436127  47.2489786  60.0578165  56.2552309
  45.7409143  59.3947172  56.7586803  45.7464314  60.3964186  55.3525782
  46.7937374  61.5410852  58.4844732  46.6950130  60.5835056  58.9957476
  47.8402233  61.6575861  58.2027102  46.4976168  62.3475456  59.1553211
  44.0183115  63.0258703  55.5085659  43.3720922  62.0512056  55.1925898
  43.4462166  64.1145468  55.9823418  44.0417624  64.8871374  56.2441158
  41.9575405  64.2791033  56.1808729  41.6687632  63.4836483  56.8678617
  41.6562891  65.5944586  56.9583416  42.2582960  65.6212759  57.8666210
  42.0720530  66.4749622  56.4684868  40.1966286  65.9298801  57.2994518
  39.5775771  65.6834412  56.4368153  39.9509072  65.4172182  58.2294512
  40.0259638  67.4649429  57.7085543  39.0180469  67.9994345  57.3355007
  40.8525085  68.0468369  58.5615301  40.4333401  68.8700104  58.9699125
  41.6970110  67.6331472  58.9300203  41.1746597  64.2049837  54.8091221
  40.2071810  63.4902716  54.6699047  41.8186760  64.7751570  53.7938404
  42.6797295  65.2529669  54.0183163  41.3748169  64.6595955  52.3963690
  40.2952433  64.8078680  52.3710299  42.0450926  65.7484818  51.5455723
  42.1630573  66.6878128  52.0857954  43.0618143  65.4285574  51.3174868
  41.3714886  66.0150957  50.2427912  40.2198029  66.7828226  50.1853323
  39.8291588  67.1475697  51.1238194  39.5703292  67.1433067  49.0287590
  38.6661816  67.7339983  49.0282774  40.1282167  66.5804482  47.8852177
  39.6424246  66.8023777  46.9465208  41.2407255  65.6870985  47.8697205
  41.4991617  65.1610947  46.9625664  41.8367147  65.4530764  49.0713215
  42.6409149  64.7358894  49.1441774  41.6025400  63.2040691  51.8300056
  40.7089901  62.6599407  51.1804676  42.7544451  62.5475931  52.0646906
  43.5120058  63.0446291  52.5109625  42.8951931  61.0938215  51.8108273
  42.8052092  61.0089064  50.7278728  44.2837954  60.6131363  52.0441389
  44.9739456  61.2149572  51.4528656  44.5475149  60.6109619  53.1017542
  44.2817545  59.5608950  51.7597342  41.7806005  60.2776384  52.5251198
  41.1254406  59.3955231  51.9671059  41.5727425  60.5609512  53.7915516
  42.1642685  61.3108873  54.1198683  40.6186628  59.9203587  54.7497463
  40.8534241  58.8668489  54.9017477  40.6924915  60.4934931  56.1574125
  40.5529022  61.5731382  56.2119961  39.6273446  59.9388647  57.0825338
  39.6487617  60.3713608  58.0828285  38.6148977  60.0784588  56.7036295
  39.8809814  58.8880157  57.2221613  41.9819212  60.1096249  56.6628790
  42.6048660  60.5018139  56.0466623  39.2749405  60.0004578  54.1315746
  38.5445213  58.9792442  54.1338873  38.7549543  61.2199545  53.8231516
  39.4088054  61.9891977  53.8523197  37.4380350  61.4915419  53.2398081
  36.7228818  61.1072350  53.9671087  37.2752762  62.9895258  53.0815125
  38.1772733  63.4590244  52.6889944  36.5836382  63.2574320  52.2827864
  36.7245650  63.6704254  54.3619299  35.6358647  63.6233711  54.3370628
  37.0702004  63.2047033  55.2848291  37.2338223  65.1326036  54.3011999
  38.3070064  65.0758123  54.4832754  37.0915413  65.5726242  53.3141661
  36.6353583  66.0947466  55.3345394  35.5540609  66.0089731  55.2271366
  36.8064618  65.7930088  56.3678741  36.9843721  67.5327253  55.2472115
  37.9716229  67.7056837  55.3717709  36.7506504  67.9215479  54.3448305
  36.5499592  68.0562353  55.9937477  37.1920776  60.6823587  52.0039368
  36.0658765  60.2377748  51.7750740  38.2220840  60.4426956  51.1741304
  39.1522431  60.6656170  51.4984846  38.1267166  59.5739174  50.0047827
  37.3785710  59.9959135  49.3337393  39.4181895  59.5357418  49.2126846
  39.8193169  60.5466795  49.1405106  40.1446676  58.9406013  49.7659779
  39.2244720  59.0569878  47.8119755  39.3632555  57.9776049  47.8733349
  38.1673908  59.1946745  47.5845480  39.9937391  59.7383356  46.7199707
  40.9001923  60.5492449  46.9210672  39.6086478  59.4745827  45.4605055
  40.0917244  59.9542904  44.7144365  38.9309096  58.7566757  45.2474737
  37.5821686  58.0970192  50.2901649  36.6722178  57.6054811  49.7100592
  38.0089951  57.5184774  51.4160442  38.6328483  57.9205751  52.1010447
  37.6109385  56.1771536  51.8761253  37.3957419  55.6362963  50.9545708
  38.8104367  55.5076838  52.5828218  39.2269278  56.3272572  53.1684303
  38.4635544  54.7190905  53.2505751  39.8731875  54.9622297  51.6150999
  39.3906140  54.3682480  50.8389473  40.7546329  55.9276390  50.7835960
  40.1622534  56.3606119  49.9775410  41.0425615  56.7001772  51.4966059
  41.6188478  55.4927635  50.2814865  40.9054041  54.1372871  52.4030447
  41.5089417  53.5495615  51.7113638  41.4628696  54.8646927  52.9931402
  40.4150105  53.4974813  53.1367111  36.3717890  56.1640596  52.7455330
  35.9335589  55.0935888  53.2112741  35.7055998  57.3096132  52.9928589
  36.0038877  58.2166815  52.6636934  34.3337512  57.4518347  53.4398746
  33.8450861  56.5160608  53.7112284  34.2991447  58.2860231  54.7814178
  33.2712317  58.3979225  55.1263428  34.8411202  57.8268003  55.6081438
  35.0077724  59.5608902  54.5871973  35.1698136  59.8447561  55.4898405
  33.4876752  58.1194067  52.2615433  32.7787519  57.3708010  51.5822268
  33.3735657  59.4830132  52.1356916  34.0663147  59.9140930  52.7309847
  32.4945521  60.2150297  51.1541891  31.4752054  60.3659344  51.5095329
  32.9575372  61.6763592  50.9918165  33.9528966  61.8316126  50.5755711
  32.3653555  62.1604300  50.2152205  32.8099155  62.5290585  52.3277950
  31.8820643  62.3623991  52.8749847  33.5887599  62.2121143  53.0213690
  32.9319835  64.0131044  51.9924974  32.9129100  64.6335030  52.8885126
  33.9209795  64.0627813  51.5369511  31.8662715  64.4893074  51.0129309
  31.0671282  63.9320040  50.7466936  31.7918348  65.7039595  50.4491901
  32.6356101  66.6587448  50.7577753  33.2472515  66.3894606  51.5150642
  32.4512792  67.5805569  50.3884697  30.7870412  65.9232855  49.5815420
  30.1439571  65.1953363  49.3047142  30.7236767  66.8212652  49.1235924
  32.4584460  59.5515919  49.7901392  31.3514709  59.2006493  49.2710781
  33.6001158  59.4632530  49.1162252  34.3894792  59.8707581  49.5967960
  33.6760283  59.0329599  47.6876926  32.9943061  59.6182442  47.0705986
  35.1249361  59.3079090  47.0678473  35.8790898  58.8927031  47.7363968
  35.3225946  58.8784695  45.6360102  36.2314391  59.3632174  45.2794695
  35.5046129  57.8084946  45.7366943  34.4734049  59.1356611  45.0028944
  35.2167439  60.7227373  47.0851898  35.4032803  61.0455942  47.9698181
  33.3699083  57.5497007  47.5367689  32.6417637  57.1760988  46.5954494
  33.8676906  56.7719889  48.5239840  34.4406271  57.2022867  49.2358065
  33.4882617  55.4046392  48.6897755  33.6364722  54.9032307  47.7333641
  34.2113018  54.7318411  49.8600054  35.2744579  54.9583483  49.7794104
  33.8371491  55.1188564  50.8078051  34.0129423  53.1272364  49.8481798
  32.9589939  52.8626537  49.7627878  34.8280597  52.6868677  48.6565828
  34.3685555  52.9986763  47.7186394  35.8293223  53.0990696  48.7817430
  34.9114442  51.6003847  48.6830425  34.5969439  52.3794842  50.9549999
  34.0832949  52.6966047  51.8625784  34.5383620  51.2981749  50.8307457
  35.6558967  52.6084805  51.0745144  31.9560146  55.1773596  48.8880157
  31.3572192  54.3857431  48.1570530  31.3350677  55.9510136  49.7213030
  31.9507027  56.4174509  50.3720951  29.8560333  55.9940338  50.0953913
  29.6773791  55.0504017  50.6108952  29.6334887  57.1445131  51.0729742
  30.2630544  56.9543982  51.9422293  29.9516749  58.0597353  50.5737448
  28.2946467  57.3620224  51.4303684  27.9321241  58.1131554  50.9549904
  28.8233399  56.1020470  48.8898706  27.6681328  55.6360006  48.9823151
  29.3219042  56.6948700  47.7995825  30.2885509  56.9774580  47.8760052
  28.4576464  57.1912575  46.7089653  27.4762154  56.8073797  46.9874239
  28.4563041  58.6598873  46.7194366  27.7010608  59.0718222  46.0500956
  28.2142282  59.0090179  47.7232409  29.7555280  59.2514658  46.2524891
  30.6351399  58.8304949  46.7394876  29.7543430  59.0246725  45.1863480
  29.7490788  60.7504177  46.3897133  28.9041185  61.2109470  45.8777952
  29.7138524  60.8777952  47.4716711  30.9121895  61.3509798  45.8320284
  31.1920953  61.1556244  44.8814535  31.5742588  62.3546696  46.3652658
  31.4199591  62.8165007  47.6027107  30.6464291  62.5353146  48.1881046
  32.2050524  63.3850861  47.8863287  32.5732231  62.8237677  45.7202291
  32.6356602  62.7040005  44.7193003  32.9809451  63.6508560  46.1322880
  28.6445498  56.5437269  45.3221941  27.9807901  56.7803049  44.3263817
  29.3729019  55.4540491  45.3872061  29.6864486  55.1736116  46.3054371
  29.9500537  54.8246336  44.2914200  30.3180051  55.6381559  43.6662006
  31.1182880  53.8972139  44.5886326  31.6210771  53.5479641  43.6867857
  31.8374968  54.4591904  45.1844692  30.8019042  53.0104828  45.1379061
  28.9849949  53.9746332  43.4198761  28.2776880  53.1049347  43.9326620
  28.9097595  54.0868521  42.1014547  29.4933844  54.8412704  41.7692900
  28.0711842  53.3081245  41.1836290  27.0485139  53.4786367  41.5200424
  28.0559850  53.9877939  39.7975039  27.9064250  55.0596571  39.9273062
  29.2854595  53.8104343  39.0049410  29.4668221  52.7379847  38.9337206
  29.0279627  54.1154575  37.9906654  30.1471686  54.3047619  39.4534922
  26.8685126  53.5291100  39.1562724  26.1191392  53.8964987  39.6306825
  28.4768367  51.8446493  41.1497355  29.6489668  51.4804935  41.0487604
  27.5924897  50.8587170  41.2684584  26.2008238  51.1097431  41.6811991
  25.7781482  51.3459969  40.7046604  26.0542369  51.9437933  42.3674679
  25.6090474  49.8150158  42.0054531  24.6723104  49.5654869  41.5071011
  25.5201197  49.7319365  43.0886412  26.6002154  48.6583948  41.6847277
  26.1704874  47.8626347  41.0762882  26.9142962  48.1302357  42.5850105
  27.8944802  49.4207573  41.2373543  28.7256432  49.3654156  41.9403505
  28.3647966  49.0614462  39.7999358  27.8275847  49.5786190  38.8318896
  29.3579340  48.1426382  39.7399783  29.6160173  47.6817656  40.6008434
  30.1721001  47.7761793  38.6161280  29.5282578  47.9312754  37.7503848
  31.4044738  48.7324190  38.4569597  32.1814799  48.2604456  37.8556252
  30.9853482  50.0995207  37.8843284  31.8780327  50.7050371  37.7275872
  30.7114792  49.9402428  36.8413854  30.4221034  50.6832266  38.6124396
  32.0426464  48.9336348  39.8032117  31.4359379  49.5545959  40.4623127
  32.0811868  47.9770327  40.3243065  33.5053897  49.3671608  39.8600578
  33.9778376  48.7115240  39.1285920  33.5666418  50.3859377  39.4773889
  33.9171553  49.3434143  40.8690119  30.5712748  46.2616301  38.7037325
  30.6877494  45.6836081  39.7770309  30.6875610  45.5587626  37.5644350
  30.5771828  46.1501169  36.1808228  31.3237524  46.9439936  36.2030387
  29.5173550  46.3193178  35.9904695  30.9913659  44.9714565  35.2400088
  32.0622706  45.0460148  35.0510478  30.5051780  45.1107883  34.2744470
  30.5213809  43.7166214  36.0238457  31.0950518  42.8659439  35.6559443
  29.4574094  43.5861206  35.8262706  30.7277679  44.0517569  37.4856186
  29.8469710  43.6769152  38.0069518  31.9499230  43.3893871  38.1636763
  33.1105494  43.7310791  37.8739071  31.5736318  42.4398661  39.0131354
  30.6050348  42.4685097  39.2979169  32.5188065  41.5765285  39.7841907
  33.1442881  42.2140360  40.4090548  31.6432166  40.5453253  40.7049131
  31.1538792  41.2982702  41.3227558  30.8858132  40.0215530  40.1217270
  32.4205732  39.5594907  41.5841532  31.6762352  39.1861105  42.2874689
  32.8506255  38.7625027  40.9775496  33.5039210  40.1902437  42.4652147
  34.5846891  39.6035314  42.7276850  33.2542658  41.2986660  43.0033302
  33.5090709  40.7704449  38.8506365  33.2289624  40.5026054  37.6829147
  34.6123028  40.2194166  39.4075704  34.9847507  40.5442619  40.2884007
  35.5047297  39.2398381  38.7814188  35.5905390  39.4339371  37.7122784
  36.8734598  39.2373061  39.4656801  37.3230267  40.2252960  39.3663764
  36.7804742  39.0768003  40.5397844  37.7979827  38.2551527  38.8976741
  38.4119773  37.3114038  39.7404718  38.1009555  37.1509957  40.7622004
  39.2873836  36.3364530  39.3332148  39.6851087  35.5894423  40.0041771
  39.7922421  36.3295794  38.0059648  40.7038069  35.3983736  37.5519228
  40.8081055  34.6036577  38.0802679  39.1626215  37.2621536  37.1138406
  39.5182514  37.2186661  36.0949993  38.1819153  38.2786894  37.5758171
  37.7710962  38.9972663  36.8820763  34.8907876  37.8312898  38.8785386
  34.4689322  37.4151373  39.9816275  34.8723102  37.1417761  37.8189659
  35.3716516  37.5251698  37.0291781  34.0711737  35.8886600  37.5232339
  33.0213594  36.1028981  37.7234626  34.1719842  35.6120157  36.0417461
  33.6707354  36.4095521  35.4933071  35.2174163  35.5191541  35.7475471
  33.5210299  34.2899370  35.4404759  33.9354181  33.4045815  35.9226990
  32.0747137  34.3424129  35.7670808  31.7141199  33.3839059  35.3937936
  31.9642568  34.0853167  36.8205523  31.4575291  35.1177979  35.3132510
  33.6620522  34.1503358  33.9409518  34.6630287  33.9278221  33.5713053
  33.0806994  33.2549310  33.7209964  33.2102418  34.9760795  33.3913040
  34.6528077  34.6963263  38.2888031  33.8383293  33.9088225  38.8098788
  35.9792542  34.5013142  38.4310985  36.5618563  35.2764916  38.1486559
  36.7093110  33.4410524  39.1838884  37.7728224  33.6797071  39.1935062
  36.4227581  33.3823395  40.7123995  35.4148507  33.0088758  40.8933640
  37.1096325  32.6819873  41.1875868  36.5078950  34.6999335  41.5202427
  37.5229883  34.9603748  41.8200111  36.1176538  35.5097985  40.9038591
  35.7128334  34.7361183  42.8008413  34.7750235  34.2278790  42.5765562
  36.3592505  34.2742467  43.5471153  35.4929781  36.1948180  43.3518744
  35.3769469  36.0269523  44.4226027  36.4138103  36.7560530  43.1931782
  34.3120551  36.8556070  42.8412151  33.5224175  36.2699246  43.0726337
  34.0420556  37.7277732  43.2731104  34.4833565  37.0268178  41.8606853
  36.6482806  32.1044111  38.4889269  36.5390730  31.0907674  39.1857409
  36.7299724  32.0459604  37.1640062  36.8679142  32.9268789  36.6896033
  36.5269756  30.8696771  36.3402390  36.5007639  29.9819064  36.9721198
  35.1488352  30.8175349  35.6443834  34.3611097  30.8259535  36.3977194
  35.0004745  31.7628002  35.1223063  34.9306703  29.6985817  34.5911789
  33.9997292  29.9814820  34.0998363  35.6867671  29.7322202  33.8067722
  34.8393750  28.2551074  35.0444889  34.6754622  27.8946972  36.1984158
  34.9631405  27.3457456  34.1089892  35.2131963  26.4102268  34.3960071
  35.2532959  27.6284528  33.1837916  37.6692295  30.6714082  35.3321671
  37.8015542  31.3356280  34.2990494  38.5096908  29.6626210  35.6420541
  38.2484269  28.9664578  36.3255763  39.6398735  29.2169929  34.6951652
  40.2819490  30.0725746  34.4858384  40.5744314  28.1545234  35.3677344
  39.9753881  27.2447872  35.4081321  41.7509365  27.7926636  34.4276285
  42.4458694  27.1129727  34.9207664  41.4580441  27.3674655  33.4676671
  42.3167515  28.7025738  34.2275858  41.0061169  28.5270572  36.8153214
  40.1262236  28.6805129  37.4400973  41.5620518  27.6910925  37.2398138
  41.8011904  29.8194933  36.9283915  41.9429827  30.0868797  37.9755259
  42.8199959  29.7263551  36.5522814  41.2332964  30.6684542  36.5477872
  39.0103078  28.7057090  33.3428144  38.2625175  27.7438760  33.3897042
  39.1284966  29.3822360  32.2095227  39.9949098  30.5378914  32.0726204
  40.9542894  30.2747178  32.5180793  39.4884586  31.4250469  32.4528337
  40.2065468  30.6334496  30.5880666  41.1205530  30.0833821  30.3641677
  40.3549576  31.6402483  30.1976418  39.0479827  29.9432087  29.8654246
  39.4266105  29.5370936  28.9274406  38.2178497  30.6223702  29.6712136
  38.6295700  28.9029574  30.9033251  37.5479126  28.7846756  30.9675860
  39.1756749  27.4684906  30.5702806  40.3605986  27.2090602  30.7593417
  38.2527375  26.5951514  30.2123547  37.3587012  27.0022583  29.9776959
  38.4280586  25.1740313  30.1018834  38.8369107  24.8980355  31.0738754
  37.0480084  24.4909930  29.9436378  36.5546703  24.6667767  28.9876986
  37.1989846  23.4154487  30.0358939  36.0732698  24.6831131  31.0835981
  35.4255748  25.6861687  31.1527109  35.9736323  23.8200355  32.0842385
  35.3870201  23.9876294  32.8891611  36.3987064  22.9135132  31.9514513
  39.3723750  24.7679234  28.9407706  40.0560951  23.8037968  29.0392399
  39.4455671  25.6023669  27.9468346  38.7933135  26.3724208  27.9058099
  40.3740978  25.4831886  26.8073177  40.5632496  24.4367671  26.5678883
  39.7182107  26.2771416  25.5770969  40.4948139  26.2638259  24.8123670
  38.7601495  25.8014750  25.3674293  39.4394898  27.6288104  25.9937429
  38.5179925  27.7019453  26.2527704  41.7719316  26.1067700  26.9975543
  42.7098703  25.7386780  26.2608600  42.0256138  26.9055891  28.0282784
  41.2468576  27.1515322  28.6225438  43.3381271  27.1872067  28.4862661
  43.9984655  27.3596931  27.6363802  43.3314800  28.6060190  29.1044974
  42.6051140  28.7281227  29.9079776  44.2399120  28.7967658  29.6758771
  43.0352354  29.7393513  27.6983142  42.3833942  28.9222884  26.8662071
  43.8757038  26.1191702  29.4493651  43.1179667  25.3001332  29.9677348
  45.2365875  26.0586143  29.6446824  45.7263994  26.8566155  29.2660332
  46.0269690  24.9877024  30.2221799  45.5791235  24.5465708  31.1126518
  46.0566139  23.8431740  29.2166471  45.0577879  23.4684038  28.9930415
  46.6661310  24.1692662  27.8618360  46.7574501  23.3059287  27.2027373
  45.9530592  24.8219776  27.3582530  47.6454258  24.6444154  27.9194403
  46.7697382  22.5284696  29.6339512  46.5120506  22.3821568  30.6828976
  46.3835621  21.6740537  29.0781212  47.8468275  22.6752448  29.5537281
  47.4811506  25.4747057  30.5616617  48.0639839  24.7299004  31.3068175
  47.9713297  26.6391516  30.1820064  47.5355768  27.1913838  29.4572544
  49.3687725  27.0745349  30.5716300  49.9672794  26.1639428  30.5983090
  49.8628330  27.9573846  29.3748188  50.9207201  28.1499457  29.5534086
  49.8549128  27.3457932  28.4726024  49.1270828  29.1692829  29.2148042
  49.0625238  29.6305823  30.0542283  49.3965054  27.7765012  31.9182396
  48.5367584  28.5944796  32.2444463  50.4306698  27.4506044  32.7496171
  51.1103535  26.7941689  32.3929286  50.6173372  28.0760264  34.1319561
  49.6054649  28.2702994  34.4875908  51.1612415  27.4604607  34.8484373
  51.4352465  29.3896794  33.9657259  51.0817862  30.1593256  33.0579305
  52.5166512  29.5319462  34.7120237  52.9293966  28.7337422  35.1731205
  53.2985783  30.7574224  34.6582127  52.5462437  31.4599299  35.0168061
  54.3364477  30.6078148  35.7985282  54.8062515  29.6245527  35.8225822
  53.8432121  30.5774546  36.7700720  55.6318521  31.9209909  35.7107949
  53.8620996  31.2010360  33.3245182  54.3981743  30.3426576  32.5694370
  53.9056969  32.5043082  33.0953574  53.5828066  33.1220102  33.8263106
  54.5169353  33.1381512  31.9010448  55.0574017  32.3515487  31.3744926
  53.3431959  33.5825658  30.9367990  52.4935913  32.9353309  31.1544180
  53.1011057  34.5843339  31.2916899  53.6326694  33.5644531  29.1125870
  52.3891878  33.9674926  28.8365316  55.5477381  34.2818236  32.2018170
  56.0808325  34.8543906  31.2585044  55.8104849  34.6179676  33.4686184
  55.5384541  33.9913130  34.2125320  56.6096306  35.7470942  33.9212418
  56.0130835  36.6100407  33.6253381  56.6029596  35.7306862  35.4721832
  57.1635246  36.6130638  35.7808471  57.1759892  34.8884249  35.8599091
  54.9670935  35.7578397  36.1334801  57.9906225  35.8601522  33.2051897
  58.5781479  36.9481611  33.0690837  58.5226679  34.7282887  32.8008580
  58.1682014  33.8750148  33.2087541  59.7478628  34.6525955  31.9581246
  60.6512928  34.9599552  32.4848533  59.9621391  33.6203909  31.6811013
  59.5992661  35.4844236  30.7099009  60.1957512  36.5510845  30.6097770
  58.6178827  35.1183581  29.9512553  57.9737711  34.3862152  30.2142859
  58.1480980  35.8456039  28.7324047  58.9937592  35.9238625  28.0491543
  57.0871973  35.0879836  27.8642726  57.3320723  34.0268803  27.9111457
  56.0973454  35.2881408  28.2744455  56.8386889  35.4650927  26.4370871
  57.6278210  36.3042951  25.7440257  58.5164499  36.7652225  26.1493492
  57.2203732  36.4316535  24.4445658  57.7244806  37.0564079  23.8316512
  56.1648369  35.5846858  24.1817355  55.4211283  35.4047704  23.0034733
  55.6930494  35.9189153  22.0934653  54.3815613  34.4444323  23.0579305
  53.7901688  34.1797566  22.1938705  54.0162897  33.8188696  24.3005681
  53.0462122  33.3464956  24.3476677  54.7440052  34.1811705  25.4969382
  54.4174480  33.8018489  26.4539528  55.8747339  34.9903369  25.4369760
  57.6700258  37.2982407  29.0577602  58.1817389  38.2574439  28.4450626
  56.7789698  37.4864531  30.0334954  56.3831377  36.7030954  30.5332708
  56.3365269  38.7899947  30.4041791  55.8740044  39.3031454  29.5610571
  55.2072287  38.7565351  31.4763093  55.6620932  38.5378027  32.4424124
  54.6954012  39.7150970  31.5617204  54.0470600  37.7521586  31.1883712
  54.5158911  36.7993355  30.9425473  53.2974815  37.5854564  32.5435829
  52.4842834  36.8695235  32.4242234  53.9888811  37.2665453  33.3235621
  52.6714230  38.4070802  32.8915501  53.0302143  38.0981016  30.1560283
  52.4963331  38.9995670  30.4567480  53.5113335  38.2914615  29.1972613
  52.2511196  37.3377204  30.1018238  57.4032593  39.7903609  30.8577180
  57.3065662  41.0040617  30.4958963  58.4196806  39.3674517  31.5713763
  58.3286285  38.4259653  31.9255161  59.6007490  40.2833557  31.8941951
  59.2882442  41.2415504  32.3092914  60.5696964  39.6852469  32.9386258
  61.2372732  38.9986801  32.4179745  61.4223433  40.7537031  33.6452532
  62.0086050  41.2994146  32.9059339  60.7360792  41.4256907  34.1605926
  62.1880722  40.3670311  34.3177414  59.7484589  39.0970707  33.9382720
  59.2911673  38.2985663  33.6646318  60.4514885  40.5361223  30.6547928
  60.8533669  41.6632700  30.3995967  60.7399035  39.5320797  29.7858334
  60.5518770  38.5849762  30.0820446  61.3835382  39.6247387  28.4674549
  62.3249292  40.0752068  28.7820578  61.4535952  38.2338405  27.7528262
  60.4593563  37.8209233  27.5822783  61.7256117  38.3446646  26.7031455
  62.3084545  37.1507597  28.4026933  63.3444071  37.4073362  28.1811690
  62.2360992  37.0408058  29.4847178  62.0945024  35.7405472  27.8380656
  61.0256243  35.5284047  27.8138471  62.5325346  35.6481671  26.8442369
  62.7747536  34.6918130  28.7434411  63.8068247  35.0386882  28.7944722
  62.2584867  34.7174668  29.7030830  62.7766991  33.3377528  28.0317092
  61.9461966  33.1777453  27.4796581  63.5302544  33.3178735  27.3594975
  62.8930759  32.5927353  28.7036514  60.7595921  40.6177187  27.4920416
  61.3790131  41.4736509  26.8834138  59.4022179  40.6233263  27.4788260
  58.9507675  39.8003340  27.8516293  58.4570646  41.5393829  26.8091774
  58.6460733  41.4886665  25.7368875  57.0155811  41.0642862  27.0645738
  56.9153023  41.0075903  28.1484699  55.8250999  41.9227362  26.6597748
  55.0078106  41.2385178  26.8877912  55.6296682  42.6879454  27.4110150
  55.7498884  42.1919775  25.6062317  56.7943621  39.7597718  26.4848185
  57.2996902  39.1301870  27.0043063  58.6073589  42.9423857  27.2645211
  58.7563896  43.8683081  26.5018058  58.5794497  43.2528448  28.5736585
  58.4130144  42.6003742  29.3264413  58.8768578  44.6383095  29.0500402
  58.2973671  45.3744793  28.4929466  58.5375643  44.7563267  30.5292940
  59.1828442  44.1490221  31.1640382  58.6668253  46.1643314  30.9960842
  58.3126783  46.3329744  32.0130587  59.7254896  46.4217663  31.0287404
  58.1210613  46.8039703  30.3024697  57.0494223  44.4634151  30.9669328
  56.8265676  43.4664917  30.5867100  56.8853378  44.5405579  32.0417500
  56.3896751  45.1725674  30.4669881  60.2845383  45.0691271  28.7797737
  60.4941654  46.2329626  28.4229279  61.2970257  44.1588306  28.9971375
  61.0912704  43.2167912  29.2976737  62.6888514  44.4449234  28.5558486
  62.9582405  45.3697157  29.0660357  63.6976862  43.4046125  29.1127133
  63.4175491  42.4123049  28.7592316  64.6960211  43.7112570  28.8006163
  63.7350798  43.3287907  30.6792378  63.5183048  44.3372440  31.0315681
  63.0323982  42.6711082  31.1908913  65.1574993  43.0498075  31.1806631
  65.4408169  42.0301199  30.9197664  65.8246660  43.7407684  30.6653404
  65.2543449  43.0721951  32.7303386  64.8001909  43.9755487  33.1375241
  64.7582531  42.1427202  33.0097485  66.6856194  43.0937815  33.0111814
  67.1254826  43.9946842  32.8887153  66.8437243  42.8161001  33.9693046
  67.1690941  42.4860954  32.3653769  62.8886318  44.8243523  27.0348001
  63.7810850  45.6312084  26.7713261  62.0739841  44.2366171  26.1551809
  61.5846109  43.4011602  26.4426351  62.0727682  44.6567297  24.7436070
  63.1237650  44.7605896  24.4739413  61.3225555  43.5973263  23.9702439
  61.7495155  42.6209068  24.1991663  60.2949190  43.5565710  24.3313670
  61.1580372  43.7376499  22.4553633  61.0005808  42.7320623  22.0653701
  60.2557850  44.3453360  22.3863363  62.3387194  44.2874670  21.6110444
  62.1331835  44.6267080  20.3841829  63.4436131  44.3422890  22.1361899
  61.4579439  46.0139608  24.3969703  62.1834612  46.7904234  23.7614417
  60.2992153  46.3649607  24.9317336  59.8106003  45.6592989  25.4640841
  59.7780371  47.7211905  24.8724246  59.4929171  47.9478598  23.8450837
  58.4737873  47.9127121  25.6334186  58.6522532  47.6090527  26.6649437
  57.8912783  49.3184376  25.4199171  58.4104586  49.9319172  26.1562490
  58.0277157  49.8543835  24.4806361  56.8271637  49.2921066  25.6545877
  57.7184343  46.9032907  25.0062156  57.6686907  47.0128870  24.0537882
  60.7886934  48.6944866  25.3911996  60.7247496  49.9065685  25.0588131
  61.5398741  48.3332014  26.4662409  61.5257263  47.3899698  26.8270946
  62.3612690  49.2036104  27.3528743  61.9007969  50.1846170  27.4699044
  62.5639439  48.6398649  28.7872934  63.0581188  47.6687336  28.7591004
  63.4845734  49.5306301  29.6778750  63.0774403  50.5313063  29.8227668
  63.4779119  49.0646315  30.6632209  64.5162868  49.5525312  29.3268991
  61.2902594  48.5242748  29.4403219  60.7981586  47.9367208  28.8622022
  63.6455202  49.4872046  26.5594053  64.0123653  50.6507921  26.4477754
  64.2655849  48.3985996  26.0836196  63.8894987  47.4997902  26.3496876
  65.4628515  48.4491348  25.1690292  65.3666925  49.3344545  24.5404911
  66.6744661  48.6512756  26.0794425  66.5134954  49.4808674  26.7678905
  66.7362928  47.7654696  26.7116117  68.0178356  48.7963629  25.3087711
  67.9283333  48.5149574  24.2595339  68.2783794  49.8547649  25.3117800
  69.1127396  48.1170607  26.1291051  69.2823553  48.7080574  27.0291328
  68.8282108  47.1348000  26.5063596  70.2769279  48.0916882  25.2611589
  70.1001263  48.2619476  24.2814326  71.5498543  47.9453087  25.6445861
  71.9300270  47.6895332  26.9087601  71.3272810  47.5738716  27.7108932
  72.9246569  47.5884056  27.0522738  72.5290918  47.9618549  24.8072910
  72.3990679  48.0312347  23.8081002  73.4561396  47.7938080  25.1712155
  65.5637455  47.2804499  24.0803742  65.2820587  47.4694586  22.8653979
  65.9663534  46.0881662  24.4756508  65.8626652  45.8628702  25.4547286
  66.1428547  44.8979712  23.5867167  65.5732012  45.1454496  22.6909757
  67.5684977  44.6768522  23.1425714  67.7746773  43.6266184  22.9361749
  68.0744076  45.4552555  21.9308305  67.3703527  45.5007744  21.0999656
  68.2267809  46.5018177  22.1946335  69.0700436  45.0934219  21.6741490
  68.4261799  45.0469685  24.1782141  68.2314587  44.4867134  24.9330688
  65.5912876  43.6663914  24.3035603  65.5514956  43.6510372  25.5196571
  65.1459932  42.6125288  23.6086059  64.7427750  42.7507162  22.6929522
  64.8116350  41.3000965  24.2062950  63.9953566  41.6458464  24.8405266
  64.1008377  40.3882933  23.1679869  63.2125807  40.9134531  22.8168368
  64.7786808  40.2403307  22.3273110  63.7576246  38.9908028  23.7727070
  64.6931601  38.4614062  23.9533043  63.1481981  39.2423797  24.6406937
  62.8779459  38.3418012  22.6842046  63.4977579  37.6101685  21.8244982
  61.6253757  38.6245441  22.5588250  66.0410833  40.7147217  24.9978185
  67.1800518  40.6049252  24.5136619  65.8170128  40.2264261  26.2384152
  64.6636057  40.2963638  27.0965743  64.0921497  39.3687963  27.0624757
  64.1063786  41.2056112  26.8710303  65.2740860  40.3772020  28.4585857
  64.5460749  40.1944494  29.2489624  65.7031441  41.3652992  28.6249614
  66.3687706  39.3210936  28.4747458  65.9390259  38.3194017  28.4690166
  67.1596432  39.4568229  29.2124462  66.8969631  39.5824337  27.0608902
  67.6847982  40.3300571  27.1529722  67.4248934  38.2789350  26.5336061
  66.6279602  37.5002909  25.9801245  68.6751461  37.9617882  26.7720914
  69.1984892  38.5350370  27.4183106  69.3968153  36.7541862  26.2987399
  68.9649677  36.4068747  25.3601313  70.9025526  37.0574808  25.9212232
  71.3355446  37.5239396  26.8061161  71.7150736  35.7411242  25.6985092
  72.7509975  35.9117413  25.4055023  71.8581820  35.3113842  26.6899443
  71.2737370  35.0638843  24.9672985  70.9160423  38.0225968  24.7042036
  70.4720926  37.5401521  23.8334250  70.3523636  38.9010453  25.0183582
  72.3377132  38.5307884  24.2881441  72.7135229  39.1670680  25.0894046
  73.0461311  37.7507043  24.0093660  72.1556520  39.0987635  23.3758068
  69.3348742  35.6596446  27.4214578  69.5302439  35.9843278  28.6468863
  68.9174986  34.3992591  27.1026421  68.4572029  34.3039942  26.2086892
  69.2175150  33.1655574  27.9303288  68.5212994  32.4224114  27.5415921
  70.6866169  32.7669168  27.5082684  70.9745741  32.8929973  26.4645791
  71.2917900  33.5407758  27.9805064  71.1670208  31.3890553  27.8934860
  70.3114033  30.5195260  28.0363822  72.4069500  31.2099147  28.1319809
  72.6921988  30.2576637  28.3107471  73.1068707  31.9283247  28.0132604
  69.0838575  33.3727145  29.4868159  69.9831009  32.9760289  30.2592421
  67.9086971  33.9349341  29.8789191  67.1264935  34.1319847  29.2711139
  67.6573801  34.0926147  31.3690853  68.3691454  33.4396863  31.8742394
  67.8495598  35.5596566  31.7269540  67.0844841  36.2009931  31.2894058
  67.8340292  35.8716607  33.2306385  68.6379719  35.3728199  33.7718725
  67.8073740  36.9445181  33.4213424  66.9070673  35.4155111  33.5781550
  69.0528822  36.0772491  31.2130117  69.0802956  36.0115504  30.2556539
  66.2424421  33.5992622  31.6937470  65.3203344  33.6253262  30.9217834
  66.1501837  32.9322720  32.8033161  66.9293451  33.1155229  33.4192944
  64.8674917  32.6555371  33.4944272  64.0752172  32.5394988  32.7548766
  64.9981070  31.4083529  34.2891145  65.7107735  31.6394138  35.0808382
  63.7436390  31.0191846  35.0747705  64.0260887  30.0260615  35.4240918
  63.6206198  31.7161369  35.9037614  62.8583145  30.8819628  34.4539165
  65.4612350  30.3425002  33.5189223  66.3969135  30.5016756  33.3748269
  64.5056915  33.8608503  34.3909931  65.3117990  34.2940164  35.1991272
  63.2903481  34.2632604  34.3238950  62.6796341  33.6366582  33.8194180
  62.7396917  35.2939439  35.2208924  63.4712982  35.5536938  35.9859967
  62.4009800  36.6041327  34.4039035  61.6264868  36.3653255  33.6750460
  61.9310856  37.3402953  35.0561070  63.5123158  37.3064017  33.6987162
  64.4429207  37.9687810  34.4814920  64.3959999  37.9000616  35.5582833
  65.4545116  38.7440085  33.8620043  66.2316799  39.2110586  34.4487548
  65.5808973  38.7630415  32.4560308  66.6197872  39.5169806  31.8987513
  67.1393204  39.8769021  32.6213455  64.6363115  38.0663753  31.6559982
  64.6819067  38.1946039  30.5846071  63.5782623  37.4135590  32.2700405
  62.8407192  37.0201874  31.5861630  61.4430428  34.8845220  35.9510112
  60.9425640  33.8028693  35.7779837  60.9368420  35.6672072  36.9294238
  61.2970638  36.6069841  37.0140266  59.7153282  35.3909731  37.6811719
  59.0463829  34.6230793  37.2926378  60.1570177  34.9342799  39.1008544
  59.3490505  34.5173287  39.7020602  60.9891844  34.2330837  39.0381980
  60.7614756  36.0559702  39.7022605  61.4961100  36.3565612  39.1622949
  58.7943602  36.7074633  37.8654766  59.2132378  37.7970839  37.4748516
  57.6735592  36.6383433  38.5839295  57.3429060  35.7258487  38.8634324
  56.8590689  37.7639294  38.9246130  56.5273476  38.2056212  37.9849482
  55.6921721  37.2927952  39.7033000  55.0986147  36.4631987  39.3191695
  56.1503410  36.9017816  40.6117535  54.7007751  38.4501529  40.0555515
  53.8847256  38.9075851  39.0256548  53.8788414  38.3988166  38.0730152
  53.1891489  40.0836992  39.0404201  52.6573563  40.3760386  38.1470346
  53.2487488  40.8377838  40.2858305  52.6390409  42.0086002  40.3837538
  51.7548513  41.9737339  40.0114775  53.9496803  40.4026079  41.3974428
  53.8144875  40.8643723  42.3643446  54.6875191  39.2568588  41.2796259
  55.2536583  38.9139175  42.1330166  57.5784397  39.0252948  39.6190715
  57.2460794  40.1336765  39.3131781  58.5413599  38.7905931  40.4935217
  59.0627384  37.9318762  40.5977964  59.1946793  39.9000907  41.2068081
  58.4076166  40.5649471  41.5626097  59.8681927  39.3059611  42.4200869
  60.4025602  40.0329638  43.0316639  58.9185476  38.6346269  43.3758736
  58.3018255  37.8073859  43.0245495  59.5239639  38.2221055  44.1829681
  58.1623745  39.3573117  43.6825132  60.7657051  38.2597160  42.0131969
  61.6052723  38.7187767  41.9357634  60.1400232  40.6188917  40.3138113
  60.2647829  41.8251133  40.4122877  60.7514381  39.9640465  39.3455648
  60.5310345  38.9869666  39.2157912  61.4760399  40.5573416  38.2467985
  62.2568083  41.2092257  38.6386633  62.1961975  39.4373894  37.4268699
  61.5028858  38.8791299  36.7977715  62.8198290  39.9324346  36.6824794
  62.9352617  38.4455013  38.3192682  62.6796007  37.2371459  38.2286215
  63.8489437  38.8240600  39.0943098  60.5769730  41.3627577  37.2891212
  60.8598948  42.5167370  37.0014596  59.4095373  40.7789993  36.9001913
  59.2318630  39.8810458  37.3270655  58.3193636  41.3974285  36.0468435
  58.5479164  41.5325451  34.9896741  57.1293736  40.4995108  36.0609174
  57.4107122  39.5337796  35.6410217  56.7490625  40.3640604  37.0733976
  55.8921957  40.9231806  35.1982045  56.0360765  41.8873739  34.1643357
  56.9817972  42.3888493  34.0210533  54.9535656  42.1585703  33.3208489
  55.1841497  42.9378939  32.6095891  53.7348032  41.4876747  33.4482455
  52.8993511  41.7388058  32.8115654  53.6591005  40.4920673  34.4620466
  52.7629471  39.8947883  34.5431232  54.7180557  40.1897621  35.3447986
  54.5753145  39.4863319  36.1517739  57.9908371  42.7902126  36.5830135
  58.0944729  43.7283707  35.8033967  57.6809931  42.8501463  37.8726649
  57.5496340  41.9613743  38.3341026  57.0879889  43.9517021  38.5618520
  56.2142229  44.3592262  38.0533695  56.3718462  43.4686852  39.8782253
  55.4572630  42.9641676  39.5666194  57.0402765  42.8322840  40.4581404
  55.7846689  44.5763493  40.7691717  55.4494524  45.4651976  40.2346802
  54.9377060  44.1552639  41.3108730  56.7411804  45.0893307  41.8054008
  57.7930832  44.5597458  42.1270895  56.3277578  46.0992002  42.5690603
  56.7387438  46.3385248  43.4600782  55.5240250  46.6493988  42.3018551
  58.0909967  45.0950146  38.7427282  57.7775288  46.2427473  38.6623049
  59.3945503  44.7004366  38.9553189  59.4228220  43.7022352  39.1066265
  60.5591869  45.6169224  38.8420820  60.3278685  46.4480162  39.5083332
  61.8443203  44.9556494  39.4806743  61.5196466  44.4195986  40.3724909
  62.2989845  44.1872215  38.8554525  62.8838778  46.0735273  39.6921325
  63.0612278  46.4636517  38.6899090  62.5441170  46.8896341  40.3298092
  64.2695618  45.4162025  40.1143646  64.2198515  44.3674183  39.8216462
  65.1239824  45.8871603  39.6282911  64.3849707  45.4254341  41.6134882
  64.0528393  46.3651323  42.0548105  63.8043213  44.6079445  42.0408726
  65.8297729  45.2465868  41.8831730  66.4920902  45.9628487  41.6216278
  65.9902763  45.2682590  42.8801012  66.0538721  44.2897034  41.6502476
  60.6550169  46.2730598  37.5149775  60.6542206  47.5259972  37.4409866
  60.7018232  45.4787827  36.4628887  60.8879757  44.4964647  36.6060591
  60.8020210  46.0377693  35.1564884  61.7312574  46.6067457  35.1265836
  61.0292387  44.8162413  34.2099619  60.9551907  45.0726748  33.1531477
  61.9391346  44.3077946  34.5288301  60.1921320  44.1274500  34.3235922
  59.5795107  46.9261360  34.7733521  59.7184086  47.9651976  34.1045761
  58.4006929  46.5489054  35.3006220  58.3411884  45.5889750  35.6089950
  57.1962690  47.3777008  35.2376032  57.0274305  47.6829958  34.2049432
  55.9676027  46.5745974  35.6932759  56.1798143  45.9623957  36.5697908
  54.7748852  47.4838781  36.0817957  55.0391150  48.1596327  36.8952060
  54.3010187  48.0426693  35.2747631  53.9428902  46.8607426  36.4098001
  55.6652880  45.5844641  34.5181751  54.6503544  45.2270174  34.6920800
  55.7613611  46.0734558  33.5487652  56.3476324  44.7352028  34.5538926
  57.3048735  48.7005997  35.9497309  56.9914341  49.7824669  35.3479910
  57.7787924  48.6602259  37.2071910  57.8902102  47.7756071  37.6816750
  58.0588913  49.8062801  38.0571365  57.0463991  50.1611519  38.2495666
  58.5645437  49.4862509  39.4781685  59.4990253  48.9379215  39.3590689
  58.8289022  50.4190493  39.9762654  57.6396179  48.6847305  40.3815508
  56.3990545  48.7507010  40.3401947  58.2426548  47.9820061  41.2936497
  57.6723433  47.6044130  42.0367956  59.2349291  47.8618479  41.1485529
  58.9271593  50.8820629  37.3075151  58.5396719  52.0565081  37.3245955
  60.1131296  50.3904676  36.7286849  60.3065252  49.4036484  36.8229485
  61.0725355  51.1606979  35.9186530  61.4696836  51.9507551  36.5559816
  62.1989632  50.1838112  35.4659152  61.7510986  49.2213202  35.2186537
  62.5944328  50.6450081  34.5609307  63.2353544  49.8840618  36.5824199
  63.7281466  50.8062887  36.8902397  62.6865339  49.5839787  37.4750853
  64.2674255  48.8483286  36.1435151  63.7174940  48.0663109  35.6199431
  65.0479126  49.3791866  35.5984235  65.0172997  48.2780886  37.3364377
  64.3377638  48.0738735  38.1638598  65.5208540  47.3649216  37.0191669
  65.9821033  49.2262411  37.8571773  66.3869095  48.7945414  38.6756349
  66.6816473  49.4369316  37.1597886  65.4727173  50.0648355  38.0967212
  60.5183363  51.8429804  34.6174979  60.7882690  53.0462408  34.3722510
  59.6323204  51.1638021  33.8715625  59.4235039  50.2172136  34.1552305
  58.9850712  51.8005419  32.7142835  59.8618269  52.2277594  32.2275758
  58.4753418  50.6956196  31.7353129  59.2929506  50.0749636  31.3686967
  57.7639103  50.0529957  32.2539568  57.7570486  51.1783075  30.4796076
  56.8770695  51.7777061  30.7129645  58.6811161  51.9216013  29.5776725
  58.8358498  52.9144812  29.9999833  59.5911789  51.3395977  29.4322348
  58.1809378  52.1675301  28.6409545  57.2800112  49.9487543  29.7662878
  56.6610670  50.3495026  28.9635372  58.1226730  49.5144510  29.2283201
  56.6246223  49.3060589  30.3540921  57.9651976  52.8687477  33.0754018
  57.9446745  53.9005995  32.3680925  57.1974850  52.6459932  34.1268492
  57.3224545  51.7323351  34.5388103  56.1982822  53.6399460  34.6405101
  55.5045986  53.9508009  33.8593102  55.4455328  53.1692028  35.8741760
  56.1718988  52.7584839  36.5754628  54.8031569  53.9086580  36.3523555
  54.4729805  52.0550346  35.4619598  54.9407673  51.2502432  34.8948741
  53.8366032  51.3779020  36.6781497  53.1414127  50.5619383  36.4806342
  54.6660376  50.9369469  37.2310519  53.3604145  52.1068239  37.3339033
  53.2117414  52.5853252  34.7331190  52.6440954  51.7549801  34.3131018
  52.4579287  53.0630636  35.3589272  53.5618734  53.2431126  33.9376187
  56.9477797  54.9051809  35.0018549  56.6075563  55.9505415  34.4144464
  58.0293512  54.8416042  35.7877421  58.1907892  54.1043377  36.4589167
  58.8928080  56.0333109  36.1075258  58.2795477  56.8327665  36.5233135
  59.8451996  55.7068634  37.2372794  60.5542755  54.9761581  36.8481946
  60.7080841  56.8617868  37.7400947  60.1155949  57.5839376  38.3018446
  61.3555193  56.3734436  38.4684134  61.1769247  57.4810171  36.9753408
  59.2812109  55.1848888  38.4101677  60.0038099  54.7324562  38.8514781
  59.5588636  56.6728210  34.8542833  59.7190905  57.9230881  34.7096801
  60.0099230  55.8665180  33.9015222  60.1003456  54.8758650  34.0762544
  60.5536556  56.3145924  32.5666690  61.1616993  57.2160149  32.6429200
  61.3189650  55.1937819  31.8580747  61.7036819  55.4824448  30.8799291
  62.1298599  54.9021721  32.5255537  60.6057978  54.3702793  31.8945813
  59.4438601  56.8371201  31.6664767  59.7591209  57.4297333  30.6630349
  58.1256008  56.6632271  31.9660354  57.8260088  56.2219858  32.8237367
  57.0078278  57.2020960  31.1358047  57.4029970  57.3714447  30.1341724
  55.9102774  56.0747194  31.0487914  55.5487347  55.8893681  32.0602417
  55.0382757  56.5160990  30.5661964  56.3901520  54.9380493  30.4274893
  57.1506023  54.7167540  30.9700251  56.3558722  58.5450983  31.7026520
  55.4084587  59.0073586  31.0483074  56.9163179  59.0944242  32.7865577
  57.7578926  58.5757875  32.9936004  56.5705729  60.3902197  33.4100223
  55.5380011  60.6633091  33.1924796  56.5462303  60.3354883  34.9651051
  57.5103903  60.0689077  35.3980446  56.3484192  61.3250065  35.3772116
  55.4164886  59.4576883  35.4854321  55.6946611  58.4637785  35.1349163
  55.4099751  59.4331074  37.0260453  55.1066399  60.4124689  37.3961163
  54.6588326  58.7157154  37.3565412  56.4026880  59.1407919  37.3683524
  54.0159273  59.8179817  35.0684309  53.8644409  59.5828724  34.0149236
  53.3400869  59.3193579  35.7632089  53.8806629  60.8921909  35.1944327
  57.2892284  61.5691090  32.8102493  58.5443497  61.6656637  32.9678607
  56.6030598  62.3930311  32.0750022  54.8509741  33.4998250  37.3101878
  37.0357585  75.3950596  44.1712427  77.4992657  52.0814037  41.7288351
  67.1159554  48.1789589  40.7251263  29.2446065  62.7025461  50.0783014
  36.6024518  27.7271152  27.5272799  40.5021429  80.3470421  58.8382196
  75.3638506   3.5385916  55.6203747  40.8160067  28.2192612  66.6344547
  40.3524017  28.1669736  65.7986498  40.8381319  27.3168683  66.9529343
  70.6956617  50.5634962  18.6768212  71.5020363  50.9220766  19.0475144
  70.0349991  51.2352274  18.8457359  37.3450248  64.9859356  14.5528473
  37.9080067  64.9034809  15.3225769  36.5523164  65.4109167  14.8803200
  35.7758126  26.1246512  10.9128250  36.2458262  26.8861458  10.5730499
  36.1856732  25.9484790  11.7597069  81.7530720  75.9339927  21.2024368
  81.0266392  75.9089016  20.5796208  82.1457951  76.7979573  21.0776772
  65.8463494  50.0016503  14.5538391  66.7688457  49.7785466  14.6781601
  65.3741710  49.3942057  15.1232971   1.1149304  73.7847637  23.3451428
   0.9883492  72.9308842  22.9315056   1.5579789  74.3102835  22.6789822
  26.5616172  26.7484425   3.8372959  25.7426398  26.2530278   3.8286843
  26.2896674  27.6587306   3.9541401  38.1721388  44.7866921   2.2272648
  37.5618402  45.1391323   1.5795340  38.4085582  43.9231838   1.8886007
  83.5902731  81.4888881  32.1195759  83.4941093  82.1445249  31.4288296
  84.4954864  81.1880897  32.0399441  17.1155636  77.7033709  42.0776619
  17.5339406  78.2640432  42.7309956  16.6981833  77.0101212  42.5889649
  58.7207787  45.6615059   6.3811745  59.4471876  46.1156325   6.8081726
  58.7291638  44.7839369   6.7633166  69.4991112  20.6358814  53.1232071
  70.0407457  21.0916543  53.7675190  69.0980196  21.3365173  52.6089430
  43.7126717  11.4937565  51.8817295  44.0410409  12.0592473  52.5807537
  44.1022191  10.6383536  52.0627655  61.8567738   0.6267331  10.5397286
  62.3857770   1.3099930  10.1279701  62.3475823   0.3843997  11.3249745
  23.3545527   9.0592692  36.4753117  23.0492243   8.9447758  37.3752560
  23.0629143   9.9382947  36.2334503  78.6724512  63.5845088  16.0975422
  78.2738201  62.7509259  15.8476128  79.1740839  63.8506840  15.3269924
  84.7121294  73.1996668  61.8268585  84.8107679  73.2253481  62.7786160
  84.5676382  72.2750212  61.6259003  78.7300245  78.1677388  21.9260372
  78.7698929  79.0290307  22.3417534  78.7999908  77.5478862  22.6520600
   9.8114293  48.5101895   5.4826416  10.7449334  48.4322332   5.6794180
   9.4290631  47.6955240   5.8087506  18.1533759  45.6941934  19.4614185
  17.7209704  46.5295081  19.6389164  17.4354785  45.0680731  19.3674530
  26.8448434  29.3523810  41.9165196  27.4967370  28.7491009  41.5597023
  26.1950907  29.4425843  41.2194409  80.2253477  58.7062048  54.0716995
  79.7689430  58.7762331  53.2332386  81.1472074  58.6046623  53.8348545
   3.9291327  78.9445208  11.6145958   4.6681159  78.8902615  12.2205605
   4.2990296  78.7081383  10.7639851  18.9767298   0.0013659  25.2943577
  19.3662104   0.8251498  25.5874790  18.2785926   0.2662346  24.6954693
  69.6907703  59.2127691  18.3646073  70.2121441  60.0097548  18.2685913
  68.8764612  59.5069824  18.7727417  80.1398746  71.3540720  41.3740124
  79.3988173  71.1146878  41.9305767  80.7776014  71.7374681  41.9761337
  13.5435193  70.7067369  33.9003529  13.1276601  71.4734624  33.5061134
  14.4357150  70.9925579  34.0966381  80.0520611  30.3800225  68.9961004
  79.4773006  31.0079408  69.4338131  80.7496166  30.9162235  68.6190891
  44.1486406  11.2140799  69.3576622  44.6701002  11.4105606  70.1359320
  43.6641550  10.4212892  69.5878458  11.2837824  10.8967087   9.7691216
  12.0461974  11.3166497   9.3708672  11.3301930  11.1426852  10.6930126
  72.7214281  72.3438929  24.5981564  72.6476328  72.5167416  25.5367245
  71.8779795  72.6170157  24.2372765  20.1036399  67.7243684  26.3383259
  20.4840796  66.9305633  25.9623398  19.8897545  68.2693647  25.5810513
  32.5548586   1.0091708  23.6649193  32.4778113   0.6291173  22.7897896
  31.8256173   0.6302140  24.1556706  13.8593381  76.7685484   7.9872049
  13.7778418  77.7218150   8.0167689  13.3692114  76.4624785   8.7503113
  35.4895735   7.2927403  68.6685944  35.5994511   7.7451521  69.5049429
  34.6048427   6.9294339  68.7072325  42.7851057  44.4981956  60.0342131
  42.6399994  45.4184961  60.2538204  43.3518457  44.5224190  59.2632055
  82.4934856  40.0754258  31.8486942  82.7355806  40.2002731  30.9310784
  81.8431417  39.3732943  31.8314327  28.8569483   3.2543109   6.4674057
  29.5561156   3.5871050   7.0301212  28.2884059   4.0100215   6.3194575
  74.5030682  38.2031499   6.5938820  73.8148157  38.8588433   6.4816059
  74.7512190  37.9611953   5.7016291   2.9508917  57.8930389  37.1940197
   2.1214717  58.3275078  37.3928417   2.6990454  57.0138239  36.9115605
  69.5767776  42.4602966  18.8538803  70.0726597  42.3322615  19.6625485
  69.7977964  43.3490728  18.5755696   7.6483688  10.3747819   6.3020720
   6.9646582  10.8647463   5.8452286   7.3204789   9.4759486   6.3306297
  16.9296830  78.6993574  18.4581532  16.4960330  78.4297250  17.6485409
  17.8638928  78.6644052  18.2525791  85.6272785  78.4058260   3.1248726
  84.7225420  78.5242461   2.8356232  86.1411468  78.9592146   2.5367178
  70.3705160  67.7853607   7.1281542  69.8180143  67.8087805   6.3468565
  70.9737055  67.0584510   6.9732489  59.3036286  41.8073311  10.0984635
  58.5823576  41.6485286  10.7073845  60.0768082  41.8833150  10.6576122
  77.2450201  71.7645072  39.2601551  76.7504446  72.5833176  39.2944111
  77.2283260  71.4368104  40.1593556  73.3517408   6.1241227  66.7751598
  73.1700706   6.2659121  67.7042055  72.5796795   5.6625712  66.4478588
  39.6961770   3.4224532  15.8244480  39.8767552   3.5770486  16.7516579
  39.0801654   4.1137812  15.5818905  29.7740063  22.4587414  26.7182316
  29.1432461  22.8921483  26.1433090  30.2645049  23.1760571  27.1196045
  78.2041073  65.7875299  64.5116997  77.7344799  65.0229311  64.1784286
  78.9595652  65.4225302  64.9724531   5.7059011   4.9883959  20.5115666
   5.9680447   5.3837130  19.6801628   5.0188121   5.5654023  20.8450379
  28.8341460  31.4247391  24.3245758  28.9239297  30.4729912  24.3730702
  28.5286841  31.5913746  23.4328617  73.6787271  28.1706572  38.1623411
  73.7877846  28.5717368  39.0245891  74.5353127  28.2628751  37.7452159
  60.1631824  75.6993841  39.0158619  59.8990361  76.5972756  38.8152374
  60.3092043  75.6983851  39.9618591  11.2340682  70.6727122   6.3383736
  10.8033936  69.8689221   6.0473885  11.0496276  71.3074111   5.6460060
  80.5265808  64.7861052  65.5593538  80.9050655  64.4079113  64.7656536
  81.2513733  64.8061848  66.1842585  46.3609902  64.7150444   6.6561522
  47.1203737  65.2957676   6.7043890  46.5838973  63.9812015   7.2288860
   9.8064797  59.9070381  11.6529335  10.2547686  60.0253545  10.8155121
   9.2422097  60.6760465  11.7332901  73.8816874  69.0846513  49.1463150
  73.9719908  70.0285910  49.0157093  73.2208197  69.0000914  49.8335804
  51.9764678  66.1963032  35.0120796  51.5459721  67.0504306  34.9750675
  52.0685546  65.9346007  34.0959610  75.1428127  47.1890879  57.3713875
  75.5292845  47.2404814  58.2455873  74.3590593  47.7361250  57.4234629
  54.8153257  30.3588724  62.9817486  54.3004036  29.5975494  63.2490921
  55.7077646  30.0247288  62.8915405   2.4074929  52.9179691  29.0336193
   2.4448674  53.6065279  29.6974816   1.8832534  53.2948099  28.3269371
  37.3718390   1.9705365  24.1729988  38.0648217   1.4113019  24.5240845
  36.7196784   2.0114777  24.8724617   4.6686928  75.5602072  63.7293305
   3.9022486  75.1660799  64.1458000   4.6203082  76.4863585  63.9662518
   6.8874321  19.9739144  39.7797455   7.3039612  19.1129944  39.8191227
   7.6138029  20.5943940  39.8399033  29.2284894  27.9982829  59.6842527
  29.7259521  27.1816850  59.6403313  28.4903932  27.8613329  59.0903759
  63.6558620  44.1513001   2.1678127  64.2479484  43.8300394   2.8478541
  63.5357801  45.0784533   2.3732342  83.4180650   8.6504958  13.7744869
  84.2625436   8.5875867  14.2207207  83.1792029   9.5748732  13.8430657
  29.5591300  44.7730453  22.3536934  29.7885459  43.8599388  22.5264229
  29.5084517  45.1754017  23.2207455  55.3053570  12.2406745  67.9251051
  54.4082355  12.5163591  67.7369547  55.7919741  13.0591631  68.0226469
  13.1769126  77.9635595  22.4662747  13.7159484  77.8751539  21.6802277
  12.3760216  77.4803232  22.2630657  66.7734799   2.0694707  12.4990906
  67.6921544   1.8328402  12.6267208  66.6884503   2.9298184  12.9099621
  35.1333244  74.2644919  58.3778620  34.5129974  74.8542322  57.9493380
  34.5832594  73.6105503  58.8091660  12.7143376  73.0841325  19.7292103
  11.9906752  73.3508276  20.2961506  13.0809348  72.3101948  20.1568379
  14.6689503  59.2497181  28.5570778  14.7813265  58.3021246  28.4817757
  14.3192284  59.5177136  27.7073158   6.1162448  81.1399174  61.9103241
   5.4007328  80.9542942  62.5184488   6.2307775  82.0890522  61.9578028
  12.8458512  19.3722200  65.7513428  12.4165416  20.0731063  66.2419367
  12.5733352  18.5684156  66.1939144  58.0601542  70.7073210  36.3027634
  57.4355952  71.3807868  36.0333122  57.9479830  70.6423186  37.2511448
  48.0480194  32.6832223  64.0210581  47.5014496  32.0982718  63.4963417
  47.8921843  33.5523224  63.6514425  11.0203641  68.1505679   0.8347334
  11.0392087  67.5502370   0.0894274  11.5733426  67.7313088   1.4940275
   2.2093241  66.0010980   6.8945660   2.5073617  65.2682470   7.4333920
   2.9553311  66.6004156   6.8715777   3.7622071  42.5132704  66.5330696
   3.5221387  42.4974346  65.6065989   2.9767991  42.8308439  66.9786119
   3.0233042  50.6989919  41.1089672   2.8084271  49.8120915  41.3978829
   3.8155501  50.9243868  41.5965904  54.7683287   5.8058286  12.4144292
  54.7749090   6.1878276  13.2920766  55.6902742   5.6378502  12.2194099
  31.6765793  73.9979495  51.9029665  31.5669640  73.1002010  52.2164392
  31.2944849  74.5407731  52.5925875  28.7810874  26.9283986  46.0256577
  28.0268431  26.9526291  46.6145229  28.6809778  27.7057099  45.4761171
  68.2175732  34.3253732  65.2049780  68.8731956  33.7631536  65.6176519
  68.3228493  34.1672945  64.2668104  86.5483515  66.7722820  18.1132569
  86.5201179  66.1800335  17.3617996  85.7847158  67.3383759  18.0008759
   2.3199649  76.2724995  17.7866234   2.7717111  76.6665864  18.5328545
   1.7404959  75.6176590  18.1760182  55.8328302  67.3046804  57.8753805
  56.7156179  67.0092154  57.6526117  55.9083040  67.6296926  58.7725449
  81.5692989  35.5094640  33.5438313  82.4454681  35.8403681  33.3461918
  81.7232124  34.6930789  34.0192856  81.1677210  60.3465961   9.4789662
  80.3380720  60.4442798   9.0116562  81.6183846  59.6370040   9.0211357
  29.7003508  17.9882920  50.2617979  28.9061284  17.9984152  49.7276211
  30.3298616  18.5108411  49.7649145  85.1290504  38.9952967  23.5104050
  85.3090279  38.4493424  24.2757668  85.9729616  39.0685788  23.0646767
   2.5301402  57.2872733  26.4358772   2.0457881  56.6189240  25.9511723
   2.6012604  58.0213069  25.8256592  73.4341526  36.1480474  47.2016668
  74.3691254  36.0682940  47.0127344  73.2501984  37.0829344  47.1101332
  74.1919176  42.6319993  20.1807846  74.4860832  42.3633255  19.3104328
  74.8447268  43.2705492  20.4677166  85.2613918  70.0077842   1.8203844
  85.1120941  70.7673811   1.2573971  84.8400824  69.2819642   1.3600458
  32.4585605   1.0680089  65.4506063  31.5566921   1.0032834  65.7647276
  32.8870893   1.6562882  66.0723162  68.3207186  75.4462195  60.8695126
  68.7476404  74.6633125  61.2173939  68.9006384  75.7438118  60.1685381
   6.3924695   4.2873314  53.0905056   6.9163609   3.6745921  53.6065769
   5.6822968   3.7538379  52.7337742  18.1550925  78.0064415  28.5281529
  17.7176945  77.2771429  28.9675106  17.6431601  78.7766145  28.7751068
  47.9865265  25.6863546  65.9512663  48.3656073  26.3902283  65.4248714
  47.9891062  24.9251986  65.3708601  65.2723281  27.8239082  24.4146980
  65.5406849  27.8339778  23.4959377  64.3281357  27.9792415  24.3901505
  30.2023448  27.1253549  11.7018189  30.5923535  27.1606504  10.8283867
  30.9509933  27.0871984  12.2970547  12.8755229  52.9286371  25.2996887
  13.5687964  53.1762217  24.6878876  12.8594105  53.6372970  25.9429421
  25.6820273  23.6816502  59.0532923  25.9507346  23.8084269  59.9632168
  24.9840832  23.0281520  59.0984964  19.5147228   7.1877050  57.1370316
  18.8524890   6.5018857  57.2226477  19.0119505   8.0000675  57.0777035
  10.7516106  47.0432211  58.2390308  10.5481608  47.4090935  59.0998316
  10.6765945  46.0963369  58.3574295  59.5174885  17.8459823  67.6942730
  60.3429985  18.2784820  67.4758577  58.9820242  18.5358512  68.0861807
  26.5481123  50.0196402   2.6217713  27.2292352  50.6499116   2.3871197
  25.8194397  50.5582230   2.9303087   2.5039704  77.0191357  21.7527127
   2.6853140  76.0836221  21.6623735   2.3719962  77.1479146  22.6919842
  32.8214939  80.4747947  52.4224281  32.7878864  80.0112810  51.5856171
  33.7396820  80.7271695  52.5197363  69.3128769  78.0256032  20.0420727
  68.5118048  78.2981394  20.4895558  69.5881359  77.2340559  20.5045857
  74.8982994  22.3708211  32.4171890  75.8019297  22.5033127  32.7037586
  74.5113127  23.2461678  32.4327435  82.6345825  20.5515170  58.0423212
  81.9229698  20.4295874  57.4138451  82.4899578  21.4271164  58.4009886
  56.8388987  22.4615717  60.2856970  57.5419426  22.8968883  59.8035574
  57.1500254  21.5641999  60.4046583  77.7244043  22.0477223  38.2109427
  78.6166000  21.9172502  37.8897023  77.3258543  22.6428747  37.5759745
  51.9545428  74.3341659  17.2919430  51.0284535  74.1512965  17.1333565
  52.1504490  75.0835012  16.7294945  11.6846411  44.5860078  28.0304207
  12.5425666  44.8301195  27.6831307  11.1359065  44.4715373  27.2545208
  36.1055684  13.9776921  66.3375664  36.7369580  13.9602911  65.6183481
  36.3077307  13.1966662  66.8526983  62.0868111   9.5011204  62.6753521
  62.2009659   8.6816293  63.1566334  61.7336035   9.2334074  61.8269348
  -0.3116464  22.0089364  61.8102980   0.4916922  22.5284433  61.8417835
  -0.1007484  21.2120247  62.2968006  27.6641615  74.3249805  46.4834785
  27.8341158  73.5895462  47.0721054  26.8620117  74.0815086  46.0214043
  40.5139828  52.0417404  67.7327585  40.6240225  51.6082144  68.5790348
  41.2156296  52.6921940  67.7038336  20.6308262  38.2998492  22.2684158
  19.7525065  38.6744711  22.3350491  20.5510657  37.4308907  22.6618351
  23.8588119   9.0613383  66.0974932  22.9932189   8.8546395  65.7449913
  24.2240453   9.6946639  65.4796457  50.8727154   3.4329436   6.5323462
  50.0763688   3.4285472   6.0012688  50.5584988   3.3914302   7.4355520
   9.7466381  69.3617881  43.1960487   9.2329414  70.0996173  42.8674793
   9.1240986  68.6358369  43.2369184  14.0389340  52.7969180  28.4630932
  13.1387036  53.1107365  28.5487141  14.5697682  53.5932945  28.4478630
  14.2447941  75.3409170   1.5687908  14.0893071  76.2343739   1.8750490
  13.7199204  75.2661513   0.7718290  46.8243281  61.6607593  14.8256649
  47.1060006  60.8108710  14.4871678  46.4200942  61.4603113  15.6698479
  85.2281666   3.4929189  69.4666910  85.1227188   2.5832629  69.1880512
  85.3320312   3.9827874  68.6509275  58.0282927  65.6205654  57.1638870
  57.5070381  65.0405502  56.6088152  58.4017181  65.0430679  57.8296852
  73.4213774  56.3341187  36.6073765  73.7896006  55.9506093  37.4033417
  73.8135616  57.2058855  36.5579476  52.9548883  17.5905526  59.0144491
  52.3902893  18.3373010  58.8148785  53.0494547  17.6095521  59.9667788
  44.5992837   4.8722861  18.4672226  43.9306149   5.5343793  18.2918705
  44.2549691   4.3747161  19.2089142   6.7767613  76.8743204  32.5266899
   6.6108029  75.9623121  32.7652992   7.0957987  77.2787212  33.3334793
   5.4912384  81.2118437  49.4611979   5.0836618  82.0721487  49.3612528
   6.1992438  81.2059467  48.8170481  68.8426415  42.3488271  25.5729260
  69.7210972  42.1232852  25.2668537  68.2577292  41.8098067  25.0404133
  78.0608225  15.3197610  68.2720995  78.7675476  15.2669036  68.9155102
  78.4683990  15.7129323  67.5003958  62.4446814  52.8618370  19.9431481
  62.3202364  52.0025073  19.5402874  61.5839664  53.0880331  20.2956165
  60.1107018  52.5884567  53.1822170  59.3214576  52.6675140  53.7180103
  60.2345602  51.6452728  53.0759396  43.0283055  17.7998135   5.4120602
  42.1171889  18.0366109   5.5853333  43.3660874  18.5204480   4.8802485
  68.9930766  68.3532666  29.4795384  68.7636893  69.2299818  29.1713394
  69.5051043  68.5049866  30.2739205  66.5917444  37.0708299  56.9201183
  67.0026588  36.8811846  57.7635765  66.2088299  37.9411244  57.0305395
  54.0172815  57.3820162  51.7543077  53.4119511  57.1638775  51.0456276
  53.8601017  56.7110252  52.4186087  69.3030414   8.5410712  19.2946686
  69.8626765   8.7097428  20.0526871  69.9051138   8.5278962  18.5506500
  77.5956575  54.2313419  27.9151024  76.9025366  53.8325881  28.4412350
  78.3188002  54.3593536  28.5290302  76.0626030  22.6388383  65.0113678
  75.5675030  22.6466680  65.8305454  75.5250788  22.1215892  64.4115734
  76.2972157  50.5183135  17.6849617  77.2419111  50.3736232  17.7383293
  76.2090866  51.3685058  17.2541107  64.5443623  70.8360909  21.2305416
  64.3732445  71.5916895  21.7927040  64.7605578  71.2153910  20.3787102
  58.4026567  64.5759128   6.9370522  59.2025201  64.1162919   6.6817106
  58.6234204  64.9975275   7.7675547   7.6283305  53.5172282  34.2096390
   6.9408982  53.1805729  33.6348976   8.0713265  54.1857563  33.6870922
  61.3710260   6.1319286  69.0643263  62.2871923   6.3704669  69.2056322
  60.8806419   6.7053169  69.6533775  74.6684067  51.3852726  62.8774609
  74.4026987  50.5327051  63.2220711  73.9910833  51.6069888  62.2384705
  79.6496765  59.1767727   5.4479374  79.0923731  58.4009491   5.3867830
  79.5226423  59.6292637   4.6140637  70.1814842  19.0622449  65.0363111
  70.2649307  18.8038611  65.9541941  69.5598555  18.4352720  64.6665621
  63.6537950  77.6471995  14.1218914  63.7586467  78.5985015  14.1381230
  63.0246012  77.4636434  14.8194946  16.9811902   9.3672393  66.5764774
  17.7296290   9.1762135  67.1417870  17.1873221   8.9300368  65.7502808
  68.9301626  62.9614543  42.8519787  68.8665812  62.0080160  42.7959217
  69.7574131  63.1200098  43.3066811  68.1912756  36.6222668  59.1959000
  68.4694576  35.7113218  59.2909050  68.3051395  36.9996834  60.0681496
  49.4363594  18.2935345  62.0226479  50.0156784  18.9253271  61.5966654
  49.3200588  17.5996816  61.3735914  11.8045228  65.3725909  29.7650589
  11.6230433  65.4825281  30.6984486  12.0121949  66.2543820  29.4559540
  60.9133863  25.8979249  59.9634743  59.9752903  25.7905912  60.1205921
  60.9930563  26.7692018  59.5751953  73.5782957  42.1249628  57.6056290
  72.8920174  41.4600515  57.5495672  73.7281656  42.2359180  58.5444880
  44.7275591  48.6237669  69.2412949  43.8988590  49.0988064  69.1794968
  44.5688725  47.9503775  69.9028015  42.7634606   6.8916009  18.0366482
  43.0886540   7.3608945  17.2683777  42.1953807   7.5219081  18.4796299
  66.0392475   1.1143118  44.0359879  65.5112553   0.4087301  44.4096327
  65.3992081   1.7217012  43.6649609  64.8493004  42.8001404  44.5962572
  65.6115484  43.3791113  44.5972013  64.5829868  42.7532768  45.5144691
  21.2461186  57.8855038  58.2508039  21.3515282  57.1449471  58.8480425
  21.6417790  57.5900888  57.4307966  84.3521969  49.4610976  29.0483822
  84.4050638  49.9172871  28.2085480  85.2566235  49.2179935  29.2462410
  16.8635695  51.8624435  16.7948307  15.9420102  51.6157447  16.7167439
  17.1876090  51.3473939  17.5337185  32.1300070  77.4043130   2.3999132
  31.7866271  77.2910021   3.2861866  31.4932196  76.9626878   1.8380465
  54.8210049  60.1000166  59.8614168  54.1863108  60.7077646  59.4818926
  54.4852066  59.9205256  60.7396269  83.0528347  69.3063162  12.2175278
  83.2963221  69.0962313  11.3159718  83.5359375  70.1086353  12.4153294
  16.3097184  78.0216931  11.0355343  17.2354930  77.7934455  10.9514298
  16.2713282  78.5858415  11.8078674   8.5084336  64.1257475  23.3293595
   9.3402283  64.5017122  23.0412640   7.8439419  64.6122836  22.8415455
  30.6087995  25.8480287  49.7221279  30.2614188  25.5986071  48.8657713
  30.7536626  26.7919016  49.6561718  80.8467960   0.8288807  60.9100008
  81.7713165   0.8383550  61.1578321  80.8304405   0.3833259  60.0629807
  83.9333161   0.7958768  13.6046185  84.4999298   0.3955577  14.2641033
  83.1357273   0.2669118  13.6211552  78.2039070  20.0835299  61.5025139
  78.5978317  20.2095175  62.3657560  77.6115227  20.8281827  61.3985777
   4.7688477  45.5746158  13.4053387   5.4844515  46.2035708  13.4978546
   4.7343295  45.3873591  12.4672760  52.8828089  82.1348308  17.4682488
  53.6445658  81.6612695  17.1340431  52.1612971  81.5101074  17.3949112
  61.9000626  11.9068682  67.0052052  61.5270710  11.7585182  66.1362410
  61.7339277  12.8327584  67.1822834  26.0646479  30.5874644  33.5831703
  25.1980727  30.9929006  33.5532726  26.5466921  30.9994440  32.8661312
  79.0011454  31.2511826  59.7263050  79.0565729  30.5124283  59.1201687
  78.4713602  31.9008613  59.2642689  38.0426829  37.4650388  19.5540775
  38.9203017  37.3865758  19.1800942  37.5101416  37.8208919  18.8427414
  23.2855361  44.9766211  32.7448334  24.2093508  45.0247441  32.4989189
  22.9980033  45.8890997  32.7755226  79.3205214  19.2470574  46.7362070
  79.1775370  18.3651030  47.0796347  80.1627541  19.5138872  47.1045399
  60.0010650  79.2590927   8.1516327  60.5108540  78.6464761   8.6817755
  60.1414029  78.9698838   7.2500290  32.2948592  71.3466095  53.7660374
  33.0192797  71.2193369  54.3786110  31.7173617  70.5987905  53.9193405
  36.9510460  27.3800778  55.8706999  36.9703794  27.4359417  56.8260717
  37.8425336  27.1306300  55.6272745  35.2613434  39.6392701  25.8857407
  35.3431067  40.5728696  26.0805096  35.6280551  39.5449898  25.0066151
  73.0830566  44.8767351  19.3520703  72.1397488  44.9031814  19.5123829
  73.3389894  43.9818679  19.5755543  11.8046952   8.0092335  45.5755424
  12.4840069   8.3934981  46.1297178  11.1393166   8.6935091  45.5030012
  18.6379903  41.6486291   3.7446322  18.5977023  41.0243674   4.4691338
  18.7912696  42.4945273   4.1655745  62.1512413  41.2675619  67.4133921
  62.0957994  41.9953728  68.0326271  61.4366198  41.4234591  66.7959452
  42.5296831  21.1328292  54.1059542  42.2137928  21.6089344  54.8739195
  43.4833860  21.1593246  54.1832972  67.3084681  67.9466079   6.2149014
  66.9410030  67.1221016   5.8964838  68.0010597  68.1577753   5.5888380
  69.8045206  14.4462967  63.8311195  70.5431986  14.8697436  63.3937645
  69.9138880  13.5150909  63.6384439   6.1343615  48.2361601  22.6255383
   5.4461568  48.0690603  21.9815792   6.0587828  49.1703652  22.8199066
  59.4521284   4.5377105  54.1683292  59.5853949   5.1529819  54.8893785
  59.6499348   5.0449097  53.3810186  80.7915918  47.2210877   8.4457411
  80.1147120  46.8758236   9.0278544  80.5004065  46.9754510   7.5676169
  35.9322875  35.1516478  18.7761177  36.7270034  35.6470148  18.9742722
  36.0434096  34.8743348  17.8667320   1.9946902  38.6011857   1.1853995
   2.6304667  38.2432921   1.8050255   1.1456673  38.3113451   1.5191425
  10.3121178  77.2814177  16.9267048  10.9482949  76.8719815  17.5131096
  10.8154385  77.5001930  16.1424603   8.2217019  71.9533800  15.5855240
   8.5010426  72.6947115  16.1227669   9.0214770  71.6581844  15.1502670
  45.2676010  16.4802945  49.2513561  44.7329092  17.2187924  48.9598799
  45.0862265  15.7877529  48.6159611   0.9447098  24.3429303  70.3600550
   1.3181401  25.1888275  70.1125908   1.1459256  23.7672377  69.6222734
  21.2776606  54.8970686   2.8026356  20.3951972  55.2674829   2.7857126
  21.7905991  55.4743110   2.2370257  27.8313622  13.6392234  53.6639370
  27.4261841  12.8110287  53.9211430  27.3858199  14.2990420  54.1953148
   2.7389615  73.1019877  40.7690872   2.4541466  72.9106210  41.6626705
   2.9645531  74.0321110  40.7836212   8.0216878  49.3888055  36.6670574
   8.2193654  48.4761988  36.8775429   7.2693198  49.6041761  37.2182240
  15.1050315  30.0071404  25.2756561  15.5055318  30.3519795  24.4775833
  15.4176888  30.5867741  25.9702744  84.2008392  18.6323451  11.5408100
  84.0399878  18.0898927  12.3128857  83.5307638  18.3608340  10.9135021
   2.8852074  59.3079530  24.5510163   3.3146947  59.8784052  23.9135613
   1.9504159  59.4100200  24.3721928  42.7368865   4.5448516   2.4542488
  43.0074582   4.4193003   1.5447106  43.4745965   4.9972651   2.8633179
  22.9867785  65.7001470   9.2522587  23.8399165  65.9494542   9.6075596
  22.4601977  66.4972447   9.3121113  80.5237572  71.2729930  24.7830643
  80.6909267  70.5267643  24.2073597  80.8580391  72.0282959  24.2993321
  72.2654200  14.5828986  61.4818478  72.5960827  13.6851072  61.5112400
  71.4243317  14.5136940  61.0301638  31.2003558  58.2782148  18.7485661
  30.2779906  58.0316590  18.6800350  31.3429682  58.8780497  18.0163826
  34.2529677  46.6048645   1.5745987  34.0662943  45.7769288   2.0172133
  33.5908811  46.6627900   0.8857502  16.3922179  16.5503788  58.1514692
  15.7710660  16.5689266  58.8795185  17.2392797  16.7410707  58.5544014
   0.3600304  51.3517474  33.7318672   0.4992049  51.4020036  32.7861752
   0.8759730  50.5949937  34.0100063  49.9028492  30.4495168  67.2225857
  49.8132706  30.4790926  66.2700462  49.3203497  31.1398077  67.5394821
  58.6862087   5.8153623  65.4686737  58.1429768   5.2130556  65.9769630
  59.4930553   5.3279465  65.3023720  44.3681963  77.7998565  66.4551640
  43.7381609  77.6107586  67.1505260  45.0273760  78.3537800  66.8733501
  75.6908266  53.4468828  16.1343826  75.2188866  53.8167416  15.3882565
  76.4557116  53.0213724  15.7469238   0.9381764  37.6029663  27.7754368
   1.0463517  36.6761889  27.5618614   1.8014996  37.8805001  28.0818333
  68.3430759  78.3221100  45.1197590  68.0623333  77.9126524  44.3013729
  67.9431669  79.1915868  45.1020588  11.1931222  74.8873185   4.7552599
  10.3527062  74.4313716   4.7100510  11.6636555  74.6004318   3.9726175
  60.2597253  55.2604590   8.8476099  60.3310649  54.7944020   9.6806397
  61.0032622  55.8632682   8.8459744  27.0207160  32.3647015  14.9820103
  26.3449996  32.2170942  15.6437172  27.7239554  32.8114145  15.4533161
   0.2809279  73.7604331  39.4367851   0.3768962  73.4490560  40.3368248
  -0.1868970  74.5914196  39.5194306  30.8148616  74.4387005  41.3003220
  31.1706393  74.5278309  40.4161801  29.8732798  74.5744942  41.1944260
  42.1332264  49.0086794  61.9052696  43.0520058  49.2692137  61.9700289
  41.6540527  49.7080708  62.3496628   7.6717417  70.1280354  11.8680443
   7.8571408  69.2189382  12.1034111   6.7573826  70.2587794  12.1192040
   1.1768859  69.9895261   5.1953806   1.6275399  70.2967857   4.4087853
   0.2703564  70.2737259   5.0784887  10.8865636  65.0954841  35.6491532
   9.9795573  64.8829816  35.4291310  10.9290497  66.0501479  35.5939545
  59.9642412  68.0247115   7.2404064  59.8760430  67.8402804   8.1755222
  60.8399074  67.7100967   7.0157828  34.0999770  25.6303000  64.1375828
  33.5334206  25.1651359  63.5220623  34.9564648  25.2153301  64.0352964
  82.8537838  43.2096796  27.2845329  83.7593262  43.0608192  27.5566925
  82.6651470  44.1066449  27.5604023  86.0102789  42.3069398   3.9181008
  86.5726606  41.9365728   4.5983853  85.1508467  41.9177023   4.0796580
  48.5187571  75.4111336   7.8023352  49.3713992  75.8296417   7.9210390
  48.3066886  75.5568837   6.8803753  42.3510885  27.5884175  51.4135027
  41.9053984  27.9117393  52.1964836  43.0844831  27.0739174  51.7506218
  14.8955496  68.7203659  67.8460979  14.3467291  69.4969679  67.9552603
  14.4451197  68.0370582  68.3425188  24.7879267  20.5091166  63.5492945
  25.1219916  20.0921035  64.3434811  24.1160011  21.1151600  63.8614750
  10.5999940  44.4353418  58.3751930  11.1185496  43.7456523  58.7895168
  10.3742926  44.0813039  57.5149979  20.6528385  58.3468414  55.4120064
  20.7051237  58.6752296  54.5144176  20.2490004  59.0609432  55.9051609
  26.2278311  27.6343666   9.2852558  26.7269747  28.3004402   9.7579540
  26.6112178  27.6252745   8.4082379  63.6178350   2.2867492  62.6270342
  64.0252972   2.2113399  61.7641783  62.8224468   2.7963930  62.4725914
  58.2148473  37.7692969  11.9927277  58.2446615  37.2750969  11.1735119
  57.2988359  37.7237232  12.2667278  38.3994239  65.0629042  39.8641552
  38.5713713  65.7983183  40.4522385  38.7697261  65.3358220  39.0247406
  74.9058573  74.5566319  13.9713730  75.3475039  73.8595127  14.4563450
  75.6126062  75.1379536  13.6906494  82.3351137  49.3747191  15.3045811
  81.4710133  49.2275952  15.6891789  82.1598856  49.8690997  14.5038857
  76.6540234  77.9680060   1.9544138  76.5589087  77.5870823   1.0814394
  76.4086859  78.8864945   1.8429817  71.0409157  61.2766098   9.3481697
  71.3460581  61.5381144   8.4794153  70.6676571  60.4047726   9.2185272
  85.7923548  70.0751923  31.0935940  86.1243717  70.8646988  30.6661858
  86.4365093  69.8827933  31.7749752  53.5714674  11.2965858  61.6441631
  53.1696892  11.1793327  60.7833147  52.9808474  11.8924403  62.1049833
  41.0988283   4.6687636  69.2920446  41.2866926   4.2004609  68.4786367
  40.9112644   3.9784193  69.9280262  76.4548635  28.9561605  58.1051302
  76.3075686  28.0838966  58.4707689  77.3597479  28.9356399  57.7936840
  30.9613555  56.2695836  27.7532925  30.6920474  56.0212575  26.8689598
  31.8722098  55.9820841  27.8158917  21.4243445   6.8766329  13.1661572
  20.7435212   6.6110490  13.7843670  21.8002352   6.0529874  12.8554310
  69.2080450  31.1687803  39.8690939  68.7270594  31.9865990  39.7423697
  69.7912216  31.3458037  40.6071997  25.8600752  66.9636797   2.7897228
  25.2110617  67.3208307   2.1835436  26.0380309  66.0833405   2.4587168
  41.1983633  27.5070810  57.3360968  40.6684542  28.1177163  56.8236971
  42.0322084  27.9601765  57.4611425  12.5902550  59.4074009  26.7126335
  12.8216355  58.9807783  25.8875908  11.7246859  59.0597688  26.9275250
  73.9411640  31.1452675  70.1974821  74.5303392  31.8498254  69.9278355
  74.2080641  30.9395647  71.0934067  84.8118075  41.6184018  22.6926674
  84.5274719  41.4427922  23.5896362  85.4386720  40.9213421  22.4993195
   7.2548287  76.4535831   5.8257116   6.7777054  76.9053505   5.1296534
   7.7956288  75.8106087   5.3670658  44.0242434  35.5148292  64.0125608
  44.4478703  35.9873843  64.7291231  43.4889174  36.1756635  63.5732937
  35.3615365   3.7302754  14.8935284  35.6248507   3.7058041  13.9735760
  35.8524260   4.4639037  15.2637257  56.9057751  25.1032090  67.8730965
  57.7689505  24.8976755  68.2321501  57.0389605  25.9106827  67.3766279
  53.7075314  17.7888844  65.0169243  54.4124970  18.2122347  64.5270027
  53.9300809  17.9398415  65.9355702   6.1531449  34.5433092  56.8347025
   7.0849133  34.5322895  57.0535946   5.7246400  34.8656797  57.6276064
  44.7714553  14.8301242  11.0504116  44.3210063  15.5716250  10.6460537
  45.4697737  15.2284644  11.5699352   7.5339413  35.6294823  43.4016323
   6.7645837  35.5906248  42.8334713   8.1403733  34.9902225  43.0276966
  81.9313805  46.3732509   0.4254831  82.3505823  45.6519328  -0.0437723
  82.5168840  47.1185427   0.2914681  28.3052485  57.3418556  19.0232720
  28.2155650  56.5486513  18.4950508  27.9560225  57.0992898  19.8808445
  11.3360350  78.8141559  34.1818298  10.9317773  78.5526608  35.0091328
  11.4810603  79.7558807  34.2732395  73.9957047  24.0996146  68.2003117
  73.4992933  24.7188067  68.7354851  74.3844032  24.6373057  67.5103617
  65.7074738  35.3827715  47.4594116  65.0369930  35.1416349  46.8202400
  66.3640118  34.6895909  47.3909044   0.2144377  58.9828323  10.3069653
   1.1528103  58.9805351  10.4958691   0.1129191  58.3568441   9.5899834
  82.6384203  74.9001454  62.1835102  83.2982580  74.2452549  61.9555439
  83.1425087  75.6408642  62.5203480  66.8293810  44.9070644  62.4042797
  67.2976112  44.1689968  62.7944660  66.6334057  45.4837370  63.1427050
  56.0273633  20.8433459   3.9289631  56.7896351  21.0811350   3.4011044
  56.3962159  20.4322169   4.7107233  19.0633242  68.5905455  14.8209156
  19.7017138  68.8707779  15.4767765  19.1501801  67.6376771  14.7939457
  79.8978901  30.7580614  42.0181417  80.4564762  31.5167308  41.8489218
  79.3218756  31.0385990  42.7292967  46.0077510  24.7939561   3.2351841
  45.1278433  24.6077702   2.9075827  46.5002379  25.0625394   2.4595846
  13.8132088  55.5830084  26.2667813  14.4503539  56.2157379  25.9352268
  14.2009633  55.2554558  27.0783104  74.5038509  20.5630875  54.8492050
  74.7567129  20.1659656  55.6826258  75.2209473  21.1623502  54.6421003
  11.2141841  77.7837204   4.7097887  11.3303988  76.8336009   4.7110190
  10.5982916  77.9506038   5.4232706   9.8766956   4.9186633   1.5261091
   9.8767266   5.8498976   1.7475428  10.6054506   4.8180649   0.9137167
  47.0329842  38.4406111  15.6058659  46.3609395  37.7635930  15.6847824
  46.5414414  39.2533276  15.4870857  48.6197894   3.3722829  47.4970579
  49.1744750   2.9396581  46.8479156  48.8835948   4.2917775  47.4628401
  41.0934338   9.0663598  16.3633122  40.9561047   9.6822140  17.0830979
  40.5330834   8.3201335  16.5763725  54.2513983  68.5820674  19.9127831
  54.9964183  69.1753195  20.0088085  54.5705454  67.8882264  19.3357624
  47.2290024  12.1920703  37.3034634  46.7319808  12.7120230  37.9350151
  47.5993476  11.4768670  37.8207363  25.6836455  56.8113743  23.7102856
  25.0669139  56.4758705  24.3609013  26.0035365  57.6322888  24.0844502
  18.7253850  64.0824150  23.8683094  18.1595748  64.5174454  24.5061554
  19.0963357  64.7969674  23.3505882  40.8570044  67.7320217   5.6922878
  41.0964339  67.3245643   6.5246882  41.2198870  67.1478175   5.0265230
  28.9787429  72.4463724  21.2770237  28.7139170  73.3595370  21.1664356
  28.9166587  72.2914480  22.2195591  60.3514910  45.3591824  43.9647865
  59.4098425  45.1879597  43.9795828  60.7108736  44.6730852  43.4023380
  33.0743544  81.2608598  39.6502175  33.6064284  82.0350860  39.8338093
  32.4042838  81.2631534  40.3337540  44.1664633  25.9355042  10.6977047
  44.3489632  26.8505452  10.4840912  45.0172982  25.5011580  10.6372894
  25.6635842  11.8306658  46.8322434  26.3170037  12.1322510  46.2011208
  25.9416041  10.9433196  47.0593132  56.3448661  79.1600226  16.3269486
  57.1837466  78.9054106  16.7112507  56.5167182  80.0076746  15.9168400
  58.7978601  38.4101582  61.8136835  57.9650545  38.2262611  62.2482586
  59.2979908  37.5987124  61.9011879  62.9092280  59.4351624  32.0308270
  63.4120409  60.2447735  31.9417252  62.1459357  59.6834301  32.5523438
  12.9276070   1.7942164  19.3925633  12.9226575   0.9618828  19.8652424
  12.8096614   1.5491698  18.4748139   3.7955372  66.8171476  29.1162075
   3.2135575  67.2010540  29.7720589   3.2442610  66.7080163  28.3413376
  35.4813004  36.4968729  26.0610104  35.3016377  35.6157827  26.3890839
  34.7326279  36.7010808  25.5006361  75.0950861  44.2131090  63.2072020
  74.6814394  44.6586990  62.4678946  75.4201651  44.9217463  63.7625313
  70.5945389  53.1337081  11.5812267  69.7585480  52.7628802  11.2986626
  71.2352077  52.4461578  11.3994278   0.2296679  63.2503031   7.0472588
   1.1789458  63.3256005   7.1443810  -0.0371940  62.6604794   7.7523293
  73.4930563  27.9409027  33.1977487  74.3482780  28.2949734  33.4415889
  73.1762171  28.5301495  32.5131798  63.5015950  26.0629866  15.8098473
  62.8045926  25.8797524  16.4398064  63.4183392  25.3719161  15.1527943
  60.2351522  27.9546380  63.2265806  61.1804438  28.0338240  63.0985641
  60.0973177  28.1887174  64.1444254  44.6382086  58.5402499  30.5337776
  44.9878066  59.4302605  30.5773510  44.3858283  58.4266506  29.6174683
  57.8582573  33.6997938  58.0471611  57.5886250  33.2435513  57.2500610
  58.5383987  33.1416655  58.4241724  78.5585443  56.0410307  18.1363358
  79.0669529  55.2412366  18.0018772  77.9519884  55.8231305  18.8440479
  29.3688815  44.8461326  25.1578201  29.7950213  45.3557404  25.8469738
  28.4501021  44.8056559  25.4232086  78.4278337  60.9265517  15.0774635
  78.2731478  60.1832460  15.6603874  79.3487064  60.8479856  14.8283638
  22.9046155  73.4985590  63.2160473  22.7124119  73.9569330  62.3980093
  22.7716447  74.1579580  63.8970327  10.1962273  60.3947805   3.5563864
  10.8941453  60.4249345   2.9019846   9.4886010  59.9115656   3.1297697
  76.5066330  48.8450323  41.4892449  76.6075985  48.6420588  42.4192108
  76.7984144  49.7531603  41.4092507   4.6504888  19.0220282  18.5494961
   4.3396434  18.8418553  19.4367088   4.4007883  18.2470439  18.0462231
  34.9532914  16.3533258  55.7345724  34.4850016  15.5612826  55.9984016
  35.8290195  16.0466814  55.4994154  69.5705748  54.7846222  40.1680040
  70.2304983  54.3017721  39.6704173  69.0469408  55.2301073  39.5019841
  58.6703000  12.2603104  27.3182930  59.1143593  13.1067870  27.2681011
  59.0835557  11.8165848  28.0589356   4.2252009  80.2930735  18.5903420
   3.9909260  80.2363251  17.6639904   3.9712565  79.4448470  18.9540066
  11.6013281  81.1896919  22.9572262  10.8032887  80.6799124  23.0968441
  12.2183364  80.5678557  22.5714173  47.6160049  52.0371389  69.9234247
  48.2669735  51.4994049  70.3743315  47.1939373  51.4370251  69.3086386
  26.5346949  59.6235787  13.5061897  26.8725913  59.9450039  12.6702847
  27.2640937  59.7310828  14.1166462  10.4500907  60.8383797  17.9706825
   9.9511330  60.1383184  17.5497402  10.0681918  61.6454719  17.6257290
  11.4518540  59.8944424  20.4823937  11.3430779  59.9893068  19.5361389
  12.0198720  60.6231867  20.7324375  16.1656317   5.9872887   6.2654890
  15.3925738   6.2327454   6.7737831  16.8824896   5.9976313   6.8997111
  69.1716997  67.4566482  20.3465141  69.3989174  67.0913623  19.4914307
  68.2227199  67.3480652  20.4088463  86.0743515  69.4796871  37.4781765
  85.5558483  69.9236535  38.1492008  86.9678871  69.7921871  37.6201977
  68.8753939  18.3361471  54.4955730  69.1170979  19.1718245  54.0962553
  69.6843100  18.0202079  54.8981524  13.5577004  47.9005180  10.3105988
  13.2764666  47.1262746   9.8230709  13.8628571  47.5570254  11.1503185
  22.2666821   5.3973172   3.4252657  21.5900073   4.8356269   3.0473103
  21.7869744   6.0036776   3.9895691  76.3128225  54.6777402  25.3418984
  76.5756933  54.6156143  26.2602009  75.4727880  54.2206155  25.3017868
  27.8297813  74.6932692  57.5587320  27.2025354  74.2822833  56.9638491
  27.2903259  75.2171046  58.1510258  28.2485852   8.8065407  17.4582352
  27.4450287   8.2979319  17.3493637  28.2576069   9.4032405  16.7098297
  51.4080954   5.4345834  57.7259779  50.7968378   5.2006030  58.4244394
  51.0586691   5.0018263  56.9469738  23.5545390  81.0226081  17.6080765
  23.5499518  80.5874537  18.4606327  23.4047072  81.9462370  17.8097977
  71.8433461  18.2817528  14.0599598  72.1074757  17.4210570  13.7348904
  70.9741768  18.4231064  13.6847271  48.4469828   1.8656085   1.4068998
  48.2607779   2.8023551   1.4706387  48.8332114   1.6400597   2.2531761
  17.1446499  27.6449320  14.3406834  17.3425517  26.9541428  14.9730457
  16.6972432  27.1934626  13.6249794  62.8643417   3.8505173  69.1485262
  62.2693872   4.5894137  69.0208864  62.4700356   3.3455989  69.8597288
  17.8162091  69.7975229  21.9536652  16.9427054  69.9586724  22.3103966
  17.9981558  70.5641841  21.4101948  61.8832493  10.9656465  47.9318285
  61.8383455  11.6337299  47.2478151  62.6396847  11.2162769  48.4621334
  36.1278567  10.7178805  54.7454800  35.3952441  11.2025139  55.1257958
  36.6637454  10.4649947  55.4972138  36.4957461  21.3077614  15.0338902
  37.3842845  21.4854405  15.3423752  35.9574589  21.9777987  15.4552330
  85.7942390  49.6011543  68.4841537  86.3984108  49.9389315  67.8230000
  84.9269867  49.7097397  68.0938864  64.4052458  40.2955198  66.2314749
  64.1572237  40.2536106  65.3079128  63.7296057  40.8393145  66.6364765
  63.0650377  27.4835324  68.0847931  63.7290955  28.1636024  67.9717970
  63.5663080  26.6776729  68.2095003  24.1840594  60.5419932  25.1697125
  23.7866252  59.7210132  25.4599919  23.9050620  61.1863326  25.8202614
  27.6983588  73.5368393   0.2433552  27.9528754  72.7343105   0.6987633
  26.7935031  73.6899446   0.5154480  49.9514660   4.8751853  13.8431420
  50.1185403   5.7160733  13.4174313  50.7924924   4.4192383  13.8111366
   2.1962874  76.4371918  10.7820667   2.5852053  77.3113631  10.7538857
   2.8672164  75.8644556  10.4105057  47.4547038   0.3396580  30.4334988
  48.3053717   0.1395629  30.8240856  47.3110280   1.2646792  30.6333222
  12.0758050  76.1781334  18.4963860  12.1360343  75.2418874  18.3065285
  12.7735417  76.3390778  19.1315998   6.8210507  59.4950008  52.6619148
   6.7040444  60.1490211  51.9728613   5.9647465  59.0746212  52.7410316
  14.0726369  70.5495618  30.7782425  14.9149935  70.5909275  31.2309612
  13.4649937  71.0052012  31.3608135  20.0243609  47.0262788  25.6319870
  20.7684081  47.6281779  25.6504311  19.4711011  47.3069738  26.3609280
  46.3163137  14.3606257  64.9720287  46.0813046  13.7332296  64.2883825
  47.2729635  14.3874466  64.9539089  14.9602318  11.6573298  47.4109077
  15.1851273  10.8207464  47.0037413  14.6896363  12.2140002  46.6807556
  70.5437136  13.5491800  51.2850380  71.0581589  12.7539754  51.1463833
  71.1565781  14.2639983  51.1127996  49.3062338  16.8948195  27.5416245
  49.7014699  17.0372126  28.4017147  48.7535843  16.1218379  27.6570000
  65.0252614   3.3900902  20.5546631  65.1023469   4.0543721  21.2395157
  64.1843304   2.9660962  20.7258190  29.5084366   2.7620099  33.9061226
  29.4364628   3.1720421  33.0441918  30.3020558   3.1395362  34.2854275
  14.1408143   0.6074927   3.3154549  13.2254634   0.8634875   3.4287085
  14.3962798   0.2492926   4.1655506  85.4405157  81.3480114  19.5379891
  86.2993185  81.4837764  19.9383129  84.8830311  81.0574459  20.2597965
  71.7812619   9.3140910  17.2301830  71.8121228   8.8184140  16.4119019
  71.9573960   8.6643002  17.9106106  30.5524001   0.3186104  25.6234421
  30.0390801  -0.4543855  25.8584084  30.0415311   0.7453606  24.9355950
  41.3282721  65.9723185   8.0426897  41.4960330  66.6675614   8.6788716
  42.1479170  65.4793881   8.0048813  40.8000264  27.9448435  14.2864384
  40.1805291  28.6486886  14.4789375  41.3373694  27.8762267  15.0756134
  84.7531796  30.6741929  61.9066858  84.2480373  30.3071928  62.6322031
  84.1391468  30.6929111  61.1726332  84.0588848  50.3884612   4.5797791
  83.3999245  50.1199375   3.9395489  83.9060823  51.3254272   4.7021641
  47.6181221  16.3316631  69.9277306  47.0976019  15.5306220  69.9879217
  48.5136795  16.0499549  70.1144075  40.0084052   5.6384061  13.0118908
  39.3333850   5.0923131  12.6089443  40.5349383   5.9504197  12.2759213
  32.2759192  76.2950014  15.4830803  31.3809245  76.3948082  15.1586308
  32.5918048  77.1917223  15.5941643  71.3497591  41.9381285  61.8498707
  71.5923738  42.3234558  62.6918268  70.9716749  42.6644278  61.3541174
  17.9644490  34.1233349  69.1191196  17.7763367  33.3888817  68.5347986
  18.9118577  34.0879130  69.2509985  37.8162670  23.1286550  60.2916002
  38.0162692  23.7659478  59.6059656  37.1748662  22.5408220  59.8924875
  49.1701111   5.7509349  17.4665798  49.8620400   5.9541819  16.8371739
  48.3573613   5.8628199  16.9734730  76.2896967   8.9054477  38.0568886
  75.9372139   9.6774507  37.6141691  77.1087599   8.7192208  37.5978804
  42.2775038  72.0963258  48.0257607  41.4295633  72.3431743  47.6565742
  42.8960140  72.7177216  47.6416445  73.9276552   1.4979582  35.1727462
  73.4326696   1.2541272  34.3905902  73.3395290   1.2969510  35.9007144
  23.6339936   4.3794463  29.2267002  24.0120492   4.6305726  30.0694622
  24.3903622   4.2406676  28.6567177  81.2696402  66.9859789  18.7884106
  82.0214216  66.3942717  18.7577595  81.5935080  67.8044032  18.4122147
   9.6213954  77.6563715   6.8430247   9.9448435  77.1164321   7.5641884
   8.7284176  77.3459338   6.6932024  18.0925593  32.3763154   6.0693087
  18.3450827  32.5327943   6.9792427  18.0227742  33.2507823   5.6863417
  84.4207088  67.0874523  39.8078884  83.5043900  67.2970294  39.6271290
  84.5581667  67.3734330  40.7109608   2.2239876  29.2058754  67.3939371
   1.5461255  29.7102571  67.8437424   1.9045449  29.1233444  66.4953947
  16.7397294  23.0250714  27.2464241  17.5697026  22.6720021  26.9259323
  16.1792454  22.2569726  27.3564686  62.7323675  56.4886999  61.2311220
  63.6152172  56.4316082  61.5965652  62.8687572  56.5729809  60.2874470
  44.6073477  74.9485897  24.5086540  45.1304381  74.8743080  25.3068318
  43.8647692  75.4981636  24.7592224   3.9267485  34.8801117  31.6164269
   3.5207741  34.3978451  32.3367371   3.5405772  34.5011895  30.8267941
  23.9014468  19.9893639  11.3292374  24.6179852  19.4919703  10.9350170
  23.1128726  19.6494839  10.9063019  20.0781346  49.0939617  66.4605045
  19.9051476  50.0209522  66.6248178  20.4152585  48.7620592  67.2926235
  72.7966396  52.0502375  14.7698559  73.4066765  52.7734135  14.6245922
  71.9405453  52.4081837  14.5348801  31.9759593   9.2180703  45.8039440
  32.7090010   9.5933936  45.3160729  31.9936213   9.6696065  46.6477646
  59.8116207  13.3666229  63.3800507  59.1472292  14.0512931  63.4577942
  60.5868816  13.8214493  63.0509043  73.3053247  45.2520262   7.8288998
  74.1233866  45.5983342   7.4724259  73.5066931  45.0562699   8.7439741
  82.0756340  61.6359234  58.8013220  81.5313816  60.8650589  58.6407185
  81.5480518  62.3709249  58.4888077  10.1295671  18.2343552   4.6320786
   9.3938026  17.6790640   4.3741383  10.6545291  18.3212445   3.8364042
  77.0638172  70.4545663  33.1697907  77.8846304  70.1770257  32.7630009
  77.3330872  71.0421561  33.8758053  50.9924459  66.9499016  61.0230207
  51.0509491  67.4049234  60.1829195  50.4495287  67.5203896  61.5670967
  80.8080133  13.2954333   6.1619820  81.3429793  12.9158375   5.4648794
  80.0626358  13.6862633   5.7060255  64.9817452   5.4632208   8.6925282
  64.4049439   5.1611254   7.9909052  65.8655247   5.3016637   8.3622994
  35.2017388   3.0262921  20.5964054  35.9979281   2.5567792  20.8451523
  35.1436982   2.9135010  19.6476521  16.1023133  62.2755145   0.7675184
  16.5097039  61.6264032   1.3410391  16.8338530  62.6638077   0.2876152
  69.2851917  51.7008947  22.6245464  69.4629280  52.5781630  22.2853626
  68.3564965  51.7171382  22.8558315   9.8512445  15.6611607   9.3112816
   9.4107614  14.8607323   9.0257515   9.3451391  16.3686059   8.9117684
  49.3973717  -0.2895572   9.0354981  50.1005587   0.0956080   8.5126127
  48.9351449   0.4622433   9.4061340  82.7428532  43.7216187  62.4096203
  83.1709290  42.9129028  62.1286058  82.2049141  43.9803743  61.6613579
  57.4754183  65.7117151  14.2631878  57.1376269  64.8820399  14.6004833
  56.7102473  66.1465405  13.8867821  45.6490136  55.6871080  64.5510721
  45.6315137  54.7711992  64.2735100  45.6433106  56.1852264  63.7337160
  69.7084603  21.4792512  15.9859051  69.8547444  20.5475161  15.8225025
  69.1297326  21.5007947  16.7480339  36.7062220   9.7039578   0.9532417
  36.7047677  10.3415415   0.2392973  36.7550025  10.2347539   1.7482914
  31.9881098  74.8541568  20.4226364  32.5511878  74.1521476  20.7487644
  31.8614428  74.6488141  19.4963421  39.2941985   5.4932664  25.5650868
  38.8161835   6.0218022  26.2041439  39.5395312   4.7018645  26.0443844
  75.0778103  31.1836720  57.5187922  75.4883957  30.3654790  57.7984476
  75.4329634  31.3432193  56.6443539  85.7093811  55.2182198  69.5935202
  85.9923649  54.5598364  70.2280951  84.7906590  55.3790092  69.8087549
  43.7309933  66.4482307  70.6193924  43.5473728  66.3113213  71.5487862
  43.7383747  65.5675554  70.2444410  28.3443818   1.4480326  30.4290356
  28.4859070   2.2970460  30.8478131  28.4297976   1.6257784  29.4923653
  35.8257565  29.7134040   8.7119545  35.6736025  29.2360947   7.8963198
  35.3412280  30.5318854   8.6044468  73.6984968  77.5546074  64.9798489
  73.1193542  77.7818298  64.2523909  73.8990307  76.6282654  64.8460102
  67.7216864  79.3561983  66.4908981  67.8974247  79.3310452  67.4314880
  68.2871008  78.6769009  66.1233521  57.3852825  60.6699467  69.4093895
  56.4937878  60.7771254  69.0777445  57.5329590  61.4433813  69.9536562
  31.2570803  61.3164590  11.7803063  32.1418612  61.4469431  11.4391770
  30.9708731  62.1908306  12.0444836   5.6747246  25.7304072  68.1279182
   5.1842404  25.5079317  68.9192295   5.0103760  25.7811117  67.4406719
  69.5935440  38.8371634  43.2667971  68.6697960  38.7462878  43.5005951
  69.7086477  39.7735333  43.1049490  28.0613940  73.0908083   7.8560700
  27.7515547  72.3377346   7.3529686  27.2638171  73.5606812   8.0996288
  63.1091580  36.4227364   4.1975130  62.1594891  36.4990494   4.1051306
  63.3689961  37.2170422   4.6642031  66.4647851   0.7180569  10.2059426
  66.4230046  -0.1770999  10.5423702  66.3320622   1.2700102  10.9766258
  44.9472087  57.2605358  25.5054058  45.1499884  56.3290893  25.5921139
  44.3545764  57.3078083  24.7552170  59.4824395   2.1527169   9.7737278
  60.1119694   1.6388676  10.2795757  59.1683755   2.8174899  10.3866448
  29.7509902  67.6141428   6.3273968  29.0418284  66.9848584   6.1957850
  29.9565928  67.9307316   5.4477753  39.5560202   0.8152077  25.1796402
  39.1359839   0.0275109  25.5250801  40.4290661   0.5248997  24.9155487
   2.5217860  58.4252702  17.6545777   2.3117011  58.8186298  16.8076004
   3.3600085  58.8172840  17.8994049  21.6374438  44.5338549  14.2916836
  21.9926446  45.4217015  14.2493309  21.9892352  44.0978687  13.5155453
  11.5317155  44.5449352  50.3467178  12.0624448  44.0182972  49.7490549
  11.2933732  43.9414454  51.0504389  82.4351788  50.6720543  59.4602823
  81.8380165  51.3069916  59.8558474  81.8875122  50.1738739  58.8535595
  65.7263455   2.4690411  23.6359276  65.2637753   2.7079890  24.4391503
  66.6444955   2.6670954  23.8203396  18.6381913  30.4224610  35.5392909
  17.8264046  30.8186650  35.2226543  18.4026719  29.5147967  35.7314062
   3.6294842  79.8220491  62.1477699   3.5824967  80.5181026  61.4923811
   3.4321023  79.0215254  61.6615295   9.6615315  35.9371448  67.7144098
   8.9027978  36.3255906  67.2789001   9.8895550  36.5630221  68.4018040
   6.9657557   5.7889508  17.9190888   7.6928942   6.4102291  17.9581227
   7.3630135   4.9422048  18.1226601   2.8088720  69.4030190  44.0642595
   1.9934280  69.5432592  44.5455217   3.3842834  68.9641035  44.6907473
  26.6015728  69.6399857  52.5246763  27.4372490  69.1736198  52.5050449
  25.9494122  68.9718569  52.3136854  31.0908263  24.2728470   3.1135525
  30.5329650  23.5794793   2.7610411  30.5369513  25.0534748   3.1049980
  47.2435808  18.7251627  27.5209332  47.9836082  18.1628895  27.2919369
  47.6417875  19.4816160  27.9515624  66.1295755  57.1065618  60.2901983
  65.5202253  57.6435662  59.7836828  66.7207964  57.7376224  60.7006264
   7.5957577  30.0553249  14.8892559   6.9046157  30.3046058  15.5027737
   7.1905511  29.3946146  14.3275608  33.6353533  50.7834397   4.9824871
  32.9996627  51.4842759   5.1272740  33.2487242  50.0178348   5.4074587
   8.3396905  17.8629445  23.6265339   8.5906737  18.6172365  23.0933537
   8.4316056  18.1667470  24.5295777  23.3068188  49.9007894  37.5670695
  22.6074751  49.6942903  36.9469810  23.8149889  49.0922976  37.6329112
  12.0072787  24.9437188  15.6657852  12.9223626  24.8977648  15.3887810
  11.6070216  24.1538821  15.3022160  11.8064030  62.8095854  55.8403349
  11.3963469  62.1342386  55.2999687  11.5871151  63.6322392  55.4028559
  42.9416187  74.0303762  31.8385196  43.8810070  74.0328265  32.0222998
  42.6184423  73.2306946  32.2536087  62.6672077   6.4561099  54.3711996
  62.9415417   6.4682043  53.4542322  63.2552814   7.0741332  54.8053074
  37.6730824   4.8143378  23.2625794  38.3268023   5.0910830  23.9046836
  37.5281501   3.8874471  23.4525776  74.4961452   4.1118294  58.9433718
  74.6252203   3.8228694  58.0400038  73.6005974   4.4493282  58.9612436
   0.5420964  54.5327352   4.4117893   0.4500954  55.3159128   4.9543776
   0.1191752  53.8393687   4.9183621  47.7835894  23.8659024  63.8298845
  47.6880455  22.9146290  63.7832022  46.8888998  24.1999412  63.7652254
  56.3806589  67.7329327  63.5614204  56.4451559  67.7948965  64.5144320
  56.3120802  68.6409665  63.2664585  49.5802069   6.5274876  68.2646561
  50.2914810   5.9116232  68.4408140  49.6471786   6.7089421  67.3271990
  24.4506821   1.5903256  27.4368443  24.5188555   2.5418112  27.3577084
  23.6776433   1.4502452  27.9836716  20.1441193  13.8162875  59.2588043
  20.9257770  13.4764051  58.8232327  20.4682899  14.1810250  60.0822830
  46.1615042  64.9732827  27.1063961  45.2555160  65.0139402  26.8001904
  46.6845767  65.2006005  26.3376583   1.3346808  45.7487069  40.7648148
   0.7375233  45.3774031  40.1153721   2.1024649  46.0155247  40.2593006
  69.7292797  25.7133399  31.5593971  70.4071133  25.0435780  31.4689030
  68.9646618  25.2379106  31.8842949  78.9000170  41.7809053  25.2023377
  78.5782663  40.8859176  25.0941433  79.4719164  41.9226547  24.4479622
  79.9248974  52.2293840   7.0191874  79.2346613  52.7181052   6.5709080
  79.6764986  52.2570036   7.9431833  39.8133858  72.7884121  45.4150200
  39.9178083  73.4211875  46.1255980  40.6850107  72.7197714  45.0254202
  69.7352314  19.0377164  46.5427780  70.4760456  19.5448601  46.8747902
  69.7113848  18.2576549  47.0970058  28.4302147  67.5631870  52.8812170
  28.5640581  66.8425668  53.4968662  28.3457573  67.1369804  52.0283127
  50.0373793  24.8643994  37.1682453  49.3876839  25.3468537  36.6570091
  50.8794546  25.2125692  36.8751192  43.4971333  11.6887093  60.8074331
  43.0690336  12.2612345  61.4439678  43.0374146  10.8531630  60.8896017
  12.5319379  32.6061605   2.1538176  13.2775157  32.0518123   2.3841299
  12.8812163  33.2217531   1.5093912  16.1208146  76.2298583  13.6507572
  16.0791104  75.2825378  13.5200752  16.6306679  76.5519665  12.9074349
  25.6590565  78.7019811  29.5025706  25.6826265  78.5359860  30.4449749
  25.4363306  77.8552387  29.1157246  78.3936119  10.7473516  29.7931266
  77.8480673  10.2722049  30.4199052  78.2863092  10.2687514  28.9711404
   4.1135209  17.2283910  20.7484306   3.6024468  16.4553665  20.5086960
   4.8952382  16.8761777  21.1739697  57.4984217   5.8627558  11.5421331
  58.1551456   6.3854754  12.0022511  57.2673416   6.3885331  10.7763696
  75.6340401  34.4636642  21.0406460  75.1401798  34.8243503  20.3042759
  75.2688019  33.5881095  21.1680760  74.1331522  54.2382406  13.4936680
  73.5781185  54.4251059  12.7365364  74.3536798  55.0998829  13.8474621
  45.5451870  31.1313844  44.2370844  46.3482952  31.6378713  44.3584299
  45.3378963  31.2300515  43.3078241  83.9029598   1.2504697  36.4239120
  84.7913837   1.0494632  36.1297727  84.0232849   1.8709669  37.1427560
  50.2590895  19.2877579  54.2772245  49.9041891  19.4353700  55.1538563
  50.4516792  18.3504868  54.2514896   6.8286038  30.3665447  56.3033819
   7.0104886  30.9935927  57.0033550   7.0871354  29.5197797  56.6672230
  82.5261347  67.4117969  26.1619152  82.0288507  66.8669342  25.5519451
  81.8672888  67.9669474  26.5790047  76.2770367   8.1261283  47.4128866
  76.7611790   7.6475024  46.7400169  76.2992287   7.5516546  48.1782103
  68.4237385  45.3897810  60.0208426  68.1275511  45.2423668  60.9190512
  67.9118061  44.7745562  59.4958162  63.7773943  45.1816511  65.4536581
  63.3543253  44.5581627  64.8633051  64.4825840  44.6816587  65.8646917
  50.5589740  53.5468815   3.6077656  51.1294262  53.7895392   4.3371023
  51.0930435  53.6932336   2.8270067  78.3382973   2.7796481  30.7594361
  78.1494889   2.1429656  30.0700726  78.8883958   2.3032925  31.3812985
   6.2268393  47.3031150  10.0401463   6.3611977  47.6441364   9.1559090
   6.1353581  46.3577829   9.9209465  69.1298723   7.8078586  66.9504309
  69.8125219   7.6255846  67.5961828  68.9614820   6.9622433  66.5347242
  62.9597338  71.2824453  68.3732080  62.9334887  72.2286738  68.2310963
  63.8122232  71.1247350  68.7789392  75.1935093  50.9652494  25.7239784
  75.6221621  50.1189660  25.8516182  74.7058432  51.1114060  26.5345635
  46.9331026  15.1128697  59.1369104  46.8338394  14.2160833  59.4565248
  46.0372496  15.4426408  59.0666628  27.6258223  48.7651514  16.7125954
  27.2667735  49.6260683  16.4977993  26.8589823  48.1966208  16.7830624
  61.6019583  25.1928949  62.9489040  61.3642931  24.3069506  62.6753139
  61.8955946  25.6212068  62.1448135  77.1255207  11.9564378  45.3483057
  77.9181433  11.4845204  45.0928211  76.5383959  11.8622077  44.5982122
  60.3763008  17.0295680  53.0176401  59.7118902  16.5535533  53.5158348
  61.1729765  16.5095448  53.1230640  74.3938875  19.6976662  39.8091578
  75.0761747  19.1289556  39.4523883  74.6085310  20.5683351  39.4743466
  27.8261702  54.5650624  11.9526161  27.4906008  55.3360520  12.4099983
  27.4725955  53.8229178  12.4429669  74.3761293  52.3527835   0.7395806
  74.8661367  51.5992199   1.0686220  74.8322432  53.1120621   1.1024727
  60.7969761  33.2072306  64.3670130  61.0072899  32.5955606  63.6614227
  59.8415089  33.2640648  64.3578720  31.8594020  55.2160381  30.5450596
  32.2985213  55.1905714  29.6949066  31.9441836  54.3253361  30.8851971
  47.4139676  25.2289603  35.6140103  46.9185099  25.4886792  34.8372807
  46.8522677  25.4738782  36.3493599  85.7832432  18.7256110  70.4808760
  86.6862297  18.4489536  70.3249216  85.7776928  19.6580541  70.2646589
   2.7506734  48.2429123  42.1505880   2.0212937  47.6230526  42.1489620
   3.5257054  47.7004147  42.2963572  10.3726299  68.8150919  60.1131344
  11.1632498  68.6304332  60.6201410  10.3607638  68.1407929  59.4338655
  24.2283766  53.1809221   9.2451824  24.5515387  54.0609466   9.0519108
  23.4927409  53.3214592   9.8412766   9.2420237  20.4344915   8.9384283
   9.0026753  21.1268090   8.3222737   9.8281901  20.8618139   9.5629563
  23.5695784  46.2934719   4.6381344  24.2938941  46.8025164   5.0020994
  23.8796847  46.0188370   3.7752070  22.1959592  43.0806398  64.5116043
  21.8676377  43.9303827  64.2177200  21.9533349  43.0369806  65.4365158
  73.0194529  79.4057048  43.5207224  73.6585577  79.5144979  42.8164959
  72.7442129  80.2972732  43.7342167  77.4726049  54.9312721  40.7442726
  78.3036940  54.8863958  40.2714981  77.2534840  54.0183221  40.9306587
  83.7234116  21.0907221  31.8616271  84.6235466  21.3628459  31.6829133
  83.5191059  20.4666495  31.1651897  52.0977592  35.2629972  65.1841736
  51.3630724  35.4564524  65.7664490  51.9854021  34.3404031  64.9551964
  58.7795584  34.4313823   7.0882095  58.1642763  33.9702158   6.5181364
  58.5957496  34.0912889   7.9638733  72.9819536   4.4736439  49.0918732
  72.6057148   3.6115259  49.2691517  73.0109310   4.5305300  48.1368065
  17.6877444  36.4904435  24.2471565  18.2319920  36.6098260  23.4688439
  16.8564789  36.9096841  24.0247502  75.3279352  25.1668143  61.5253925
  75.1868200  26.1100101  61.6072416  74.6801710  24.8828006  60.8804321
  23.4414904  74.7302817  45.5202068  24.2921870  74.2965959  45.5871357
  23.5671847  75.5728315  45.9567131  58.8965974  22.9687903  11.0060753
  59.1042599  23.8619635  10.7315792  58.6872372  23.0468342  11.9368328
  77.4404669  31.0204029  70.2684879  76.8288755  31.6967726  69.9774456
  77.7316618  31.3159347  71.1311007   9.3577521  58.5233174  16.8759979
   8.7108414  58.1481134  17.4734558   9.8815529  57.7751111  16.5895523
  19.5071030  10.9176171  60.1004076  19.1946412  10.9152412  59.1956425
  19.4829274  11.8387032  60.3597307  10.1855557  44.1178598  38.8360085
   9.4500249  44.2452140  39.4351830  10.6735938  44.9402408  38.8776936
  14.3452017  38.0719172  31.4027275  13.8589041  38.6895765  30.8566155
  13.6704009  37.6061838  31.8966641  84.4497776  42.4447680  57.4979734
  84.9473190  42.0596313  56.7766142  83.8700676  43.0795670  57.0770311
  36.3590677  68.5066009  52.6095390  36.9528111  69.2573942  52.6059818
  36.1732443  68.3438111  51.6847706  43.4951537  77.2941612   7.4199928
  43.4581034  78.1362604   6.9664253  44.0256636  77.4644707   8.1983151
  66.1105251  22.2470284  58.4056044  65.2862310  21.7956972  58.2237530
  65.8509159  23.0404186  58.8739681  11.2346268  30.4989719  67.4940920
  10.4058552  30.1589990  67.8314161  11.7605210  30.6671500  68.2760048
  62.4592209  14.5904183  63.3465624  63.3445120  14.9530733  63.3777761
  62.5501490  13.7793100  62.8464985  75.8366091  60.8858753  56.2228251
  75.3918452  61.2626387  55.4635715  75.8570034  59.9453498  56.0461235
  61.0291903  63.2483719   6.1305870  61.3599150  62.4082063   6.4483561
  61.7575686  63.8561939   6.2581028  41.3207769  33.9155078  23.8414192
  41.9352531  34.3457794  23.2468486  40.8154345  33.3279800  23.2795739
  43.6924975  68.1486653  12.5344147  44.5651572  68.4480737  12.7894749
  43.1840079  68.9530228  12.4310841   0.4005282  44.9101485  12.1386208
   0.8444636  45.0715719  12.9711403   0.4822247  43.9661752  12.0027126
  14.5749037  45.7076939   0.6240048  13.7320845  46.1036168   0.8456577
  14.9855702  45.5292116   1.4700140  30.6972654  76.8422634  48.0203199
  31.4046486  77.3003516  47.5664520  31.0831602  76.5711678  48.8532782
  60.7595881  79.0098716  58.2094908  60.8324678  79.7911564  58.7576818
  61.6144426  78.9341460  57.7855539   8.9068127   9.1003895  51.9291878
   9.3199063   8.8641971  52.7597284   8.3158589   8.3715898  51.7398119
   9.2220681  24.9795209  35.8776344   9.8190110  25.7207750  35.9797825
   8.4677260  25.3417598  35.4128899  26.2504904  19.3050431  32.2610726
  26.9797461  19.4150828  31.6509022  26.2975352  20.0723265  32.8314175
  20.4917582  73.7257225  69.7894430  19.9930866  74.5286710  69.9405384
  20.8603533  73.5080076  70.6455803   5.7663148  26.0577880  40.1967873
   6.6206401  25.8791612  39.8037876   5.4480021  26.8337487  39.7354950
  16.4003461  36.1844404   9.8064388  15.5389826  36.1364542  10.2211537
  16.9923203  36.4423861  10.5130257   8.6852456  19.1031468  25.8861971
   9.1238118  19.9270904  25.6740379   8.9681531  18.9041281  26.7787123
  43.8652754  20.0988913  44.4269466  44.6197605  20.0166488  45.0102329
  43.1099415  19.9127841  44.9846840  65.2045155  26.0982084  57.1406126
  64.2543697  26.0710096  57.2533751  65.3300810  26.3627291  56.2293005
  33.0388601  75.5777884  56.1201620  32.3839577  75.9984756  55.5630636
  32.5816210  74.8297329  56.5043163  79.7787842  18.1759665  25.9464134
  79.0742287  18.2263301  25.3004326  80.2113709  19.0283511  25.8959641
  20.3444188  56.9740330  11.5647091  20.2235739  57.9021321  11.7653622
  19.7229188  56.5226124  12.1358456  80.0477695  29.8316288  66.1781931
  80.6188011  29.0693188  66.0831070  79.5673990  29.6712232  66.9904375
  60.2010155  23.5955024  28.9883494  60.8089828  23.3364987  28.2958722
  60.2792835  22.9048514  29.6464586   8.2368319  46.4744650   6.0071291
   8.1309693  46.2224625   6.9244732   7.3422616  46.5672092   5.6794514
   9.8308747  59.1508983   6.1646380   8.9719098  59.0175615   6.5654291
   9.6683352  59.0882181   5.2234234  55.5617523   3.9114231  55.8503342
  56.0986519   4.6060172  56.2317848  55.8175230   3.1218135  56.3271236
  68.5658312   7.1444279  50.5594397  68.2480907   6.8150955  51.4001608
  68.0686998   7.9494089  50.4141903  73.6570215  10.1219189  30.9841251
  74.0772915  10.0292385  30.1291299  73.1313848  10.9182096  30.9075761
  24.8559802  80.9807657  35.8628620  24.9463313  81.5381263  35.0899376
  23.9123957  80.9370397  36.0176529  16.9592564  54.7204386  24.4399609
  16.1785977  55.2669500  24.3497814  16.6588299  53.9518355  24.9249615
  54.1694355  12.7345371  20.6205535  54.3102074  13.1479287  19.7687769
  54.8259115  13.1333077  21.1917400  32.9420607  68.6283778   3.1838288
  32.1965068  68.6120103   3.7839235  33.4277575  69.4166301   3.4267153
  32.6513999  50.8421897  25.6374611  31.7973273  51.1788212  25.9085335
  32.6834910  49.9547862  25.9948410   2.2113228   6.4430505  60.7003260
   2.9285145   6.6692406  60.1081228   2.4851418   6.7871869  61.5505171
  75.8672197  69.3487061  43.7295961  75.5612047  68.8947988  42.9443836
  75.3534468  68.9680065  44.4418716  73.2374565  19.9202989   4.5080055
  72.6157705  20.3322338   3.9079632  73.2066719  20.4639743   5.2952160
  62.7463778  75.8730681  57.1760321  63.5186155  75.3616745  57.4176073
  63.0975683  76.6306604  56.7081165  79.3099682  58.4063111  19.4469990
  79.1243879  57.4971543  19.2119946  78.6821930  58.6072086  20.1410927
  55.6944418  53.2384443  50.4517937  54.9684238  53.0444956  49.8589087
  55.4016447  52.9136610  51.3032722  42.1948814  35.8548617  50.6237268
  41.8950653  35.6143665  51.5003681  41.9303608  35.1201248  50.0701714
  76.1545324  35.6519485  47.1164608  76.8579960  36.2094831  47.4489117
  76.4387560  34.7608376  47.3198700  33.0473971   4.7879350  45.3076077
  32.4890041   4.0800077  45.6289625  33.5358644   4.3975198  44.5828962
   6.2930045  17.2315190   5.1606573   7.0626959  16.9677279   4.6564545
   5.5884919  17.2800658   4.5144905  69.7935581  16.7965972  33.7923741
  70.3539658  16.1908209  33.3073831  70.2486372  17.6371336  33.7410569
  57.0698500  21.7089295  48.1066561  57.4482727  21.3702178  47.2952938
  57.1060324  22.6604342  48.0088758   5.1432229  11.3559866  46.4401340
   5.5999756  11.4845490  47.2714472   5.6858540  10.7279360  45.9633398
  44.1830690  77.3460443  55.9618950  44.7446926  77.7363695  55.2922249
  43.5067709  78.0045132  56.1208534  69.4042921  50.0087547  52.3747110
  69.2341757  49.6640778  51.4980745  69.5873785  49.2335320  52.9055023
  42.5058406  76.5019535  12.2447361  42.8869479  75.6391858  12.0815624
  41.5871852  76.4096449  11.9922032   7.5955336  80.1991914   1.7351021
   8.2824891  80.4943060   2.3327889   7.9248374  79.3731569   1.3808979
  73.3036661   2.8327805  66.2495995  73.9829493   3.0808243  66.8767214
  72.6625586   3.5419145  66.2979698  67.7758789  42.1227598  61.4837265
  67.2236395  41.4384317  61.8618345  68.4650993  42.2606039  62.1335030
  34.0150309  17.5083780  42.4866724  34.2586231  17.2629833  41.5941048
  34.3491364  18.3994365  42.5897312  34.7939150  56.0478746  31.8506207
  34.6071570  56.2212525  32.7732720  35.6447833  56.4586066  31.6971840
  17.8864329  39.5528495   5.6805863  18.6682265  39.0122961   5.5673088
  17.8090232  39.6665098   6.6278567  63.0098192  45.6151955   5.7798256
  62.6231758  44.7642563   5.9863199  62.7004520  46.1942260   6.4764227
  51.2024825  28.5667931   9.1217770  50.7290309  29.3605147   9.3709339
  50.5252879  27.9792749   8.7864317  78.2160711  28.6009979  54.4832039
  79.1500044  28.4942603  54.3026257  77.9433393  27.7563381  54.8415327
   3.8102723  28.3913326  43.3351660   3.3091927  28.9309859  42.7236748
   4.1910268  29.0176296  43.9508057  11.5517180  67.7280210   7.9106058
  11.0505383  66.9449233   8.1382145  11.1362307  68.4316038   8.4091772
  53.4932041   2.9279521  54.3899107  53.6687565   3.5541171  53.6875391
  53.9352083   3.2960850  55.1549864  16.1397593  31.5398435  23.0544247
  16.0848134  32.4261849  22.6971974  17.0613282  31.4333491  23.2902302
  29.3623011  63.4395169   1.4590420  30.2146475  63.0088638   1.5244688
  29.4136279  63.9507555   0.6514324  23.5429001   6.4802104  51.8923712
  23.5198117   5.6052130  51.5049744  22.9603577   6.4222991  52.6496887
  59.1540527  29.6177220  60.4586983  60.1001120  29.5084047  60.5548859
  58.8707352  28.8400197  59.9779272   6.8808024  63.8543604  12.4495377
   7.5114625  63.2256507  12.0985092   7.3986905  64.4171213  13.0251469
  45.5525717   0.3291009  26.9552292  46.4039597   0.6246016  26.6326584
  45.5687747  -0.6208207  26.8385185  27.6355417  79.1069309  63.5676718
  26.8205841  79.3670673  63.1382465  28.2314976  78.9028902  62.8469515
  62.4842930  30.2658534  51.3181448  61.5352392  30.1538134  51.2635565
  62.7202082  30.7104349  50.5039454  75.9271893  29.6210263   2.9945482
  75.5854401  30.4747365   2.7288164  75.8003125  29.0628836   2.2273316
  57.3104429  42.7682877  58.5829926  57.7723885  42.1226215  58.0482435
  56.3854170  42.5423717  58.4853983  63.2674837  13.9349222  39.0122557
  64.1401577  13.5741138  38.8557601  63.2044601  14.6781158  38.4123206
   2.6679938  29.5840739   0.9764828   3.1039803  29.4135200   1.8113817
   3.0145114  30.4303979   0.6938233  25.9932845  38.7948862   6.4034571
  26.1698287  38.6685342   7.3357119  26.8510287  38.7209235   5.9850802
  11.3947106  42.2996616  42.4840450  12.0345879  42.1839714  43.1864786
  10.8049107  41.5508604  42.5716162   0.3800202  34.9281025  37.7715230
   1.2584019  35.0567484  37.4135733   0.1133347  34.0674996  37.4482965
  33.2356303  15.5426143   5.0190033  32.3480361  15.8461021   5.2095379
  33.4469836  14.9516224   5.7416977  75.7688570   8.9590538  59.0724945
  76.4473867   8.2906502  59.1677094  75.0641394   8.6691791  59.6517897
  83.9068890  19.1794872  36.8125272  82.9745293  18.9778340  36.7332268
  84.2517090  18.4960794  37.3872304  19.3789857  27.9395042  27.3141064
  19.4109051  27.0473312  27.6594128  19.0918772  27.8350984  26.4069714
  83.1511442  55.0726520   9.8689236  83.5525743  55.8583366   9.4977249
  82.6265232  54.7113501   9.1544546  74.3632078   7.1686441  39.1408873
  73.9267921   7.6813787  39.8212409  74.9128389   7.8018999  38.6792374
  79.4547979  47.9377173  21.2118973  79.5084564  48.5856925  20.5094113
  78.8332455  48.3121513  21.8361630  18.0550718  37.1562696  33.0807471
  17.9805362  36.2045693  33.1510782  18.8678253  37.2976351  32.5952792
  83.1798975  62.5381325  20.4770340  82.6601498  61.9102262  19.9752106
  83.6655848  62.0009755  21.1029782  36.6515765   2.2448800  10.7487358
  36.4126286   1.4689992  11.2558331  35.8328805   2.5250266  10.3394856
  14.2849200  79.3056868   9.4440617  13.5678332  79.2701696  10.0771202
  15.0116007  78.8606523   9.8800816  50.7228518  20.0828815  46.4737511
  49.8372507  19.9040663  46.7899275  51.2866211  19.9032497  47.2261667
  69.3272822  67.5609087  13.8510765  69.4352763  66.7939542  13.2886280
  68.7395518  68.1362151  13.3613552  82.8946917  79.2316125  24.8076309
  82.8923122  78.2762049  24.7491230  82.7622549  79.4149421  25.7377304
   3.0598355  42.3421812  16.1776352   2.9024411  41.4283514  15.9402025
   2.2192574  42.6496935  16.5168941  84.5296288  12.2763264  50.8163118
  85.0878620  11.7355478  50.2575970  83.6886120  11.8194139  50.8285952
  83.3671181  47.9062139  10.6542076  83.8046209  47.6151972  11.4542832
  83.2886497  47.1141701  10.1224674  61.8336091   0.8234809  43.3311237
  61.9523606  -0.1262405  43.3437790  61.2615475   1.0032962  44.0772022
  62.2845173  21.4210010  50.2825737  61.8051958  21.4897132  49.4568825
  61.6415358  21.6526103  50.9527683  34.3677085  41.0288516  12.7989544
  34.9570029  41.7752618  12.9077686  34.9234431  40.3345698  12.4448837
   6.9986146  81.7178224  21.0106148   7.0225804  81.2367462  21.8377937
   6.2197535  82.2702383  21.0773052  22.4448912  77.9923605   1.2642063
  22.1153872  78.8625001   1.0394444  22.3667662  77.9454254   2.2170557
  76.0066462  19.3070149  57.0504284  75.2805948  19.0855658  57.6335573
  76.7059803  18.7022853  57.2983551  15.2643626  58.5198198   8.7370600
  15.7978861  58.2950722   9.4993366  15.0867932  57.6802300   8.3130421
  50.3385863  22.2826884   3.2671227  50.9541258  21.5794108   3.0603708
  50.2849803  22.2807953   4.2228188  49.3862519   6.1991856   9.0426649
  50.2581963   6.1334632   8.6532845  49.1283879   7.1099351   8.9002813
  67.8331041  26.0044646  54.2623377  68.2814026  26.7174006  54.7172880
  68.4798908  25.6740665  53.6388445  20.4369490  54.5341693  10.2635445
  20.7394307  55.3246413  10.7106270  20.5341523  54.7335921   9.3324055
  64.8876953  19.1847765  57.7685547  64.2329693  19.5842361  57.1958494
  65.7187510  19.3203902  57.3133755  76.1919785  34.6798086  66.1009407
  76.7608356  35.4477191  66.0466480  75.5875111  34.8795724  66.8157434
  17.9767165   6.7281602  29.4594063  17.1006474   6.8259595  29.8324551
  18.1170354   5.7820246  29.4224037  22.4147265  66.9101213  13.6252655
  22.4697440  67.0551942  14.5698036  21.8117468  66.1727260  13.5309281
  75.8528042  29.4221616  36.7085290  75.2920103  30.0797081  36.2969804
  76.3137865  29.8987412  37.3988938  59.0548310  10.0971959   5.0611319
  59.1537270  10.7029984   4.3266596  58.4547505   9.4250510   4.7380795
  44.8021936  31.0963511  59.4041204  44.4941425  31.0017419  60.3054428
  44.3262672  30.4240584  58.9165306  51.2719877  79.9273151  43.0083895
  51.4141996  78.9895675  42.8794050  50.4911526  80.1245383  42.4910641
   7.8057656  21.7935965  48.2332958   7.4288544  22.5907443  47.8608383
   8.2604417  21.3785145  47.5003590  60.8419561  56.2760687  69.2790079
  61.1967564  55.6173706  69.8760557  60.8009768  55.8335972  68.4312057
  61.5219132  57.3690878  24.6064152  61.4430491  56.9483183  25.4625572
  62.0021431  56.7366098  24.0720238  53.9060688  47.4900389  65.9043455
  54.5628738  47.4466610  65.2093935  53.3700132  48.2506990  65.6801367
  54.8386343  65.3493155  68.1338596  54.7497423  64.9796880  69.0123272
  53.9416941  65.4001153  67.8034973  78.0077219  33.6583066  58.5365248
  77.6735640  34.3097949  57.9199791  77.9036474  34.0664649  59.3960667
  61.9495153  19.3441439  52.4771309  61.4580059  19.2664087  51.6594505
  61.5029001  18.7520409  53.0822611  82.1787247  12.1913264   4.0123762
  82.8608689  12.5668738   3.4557118  82.4269852  11.2718508   4.1081299
  44.1030829  70.0175427   5.2564348  44.4803565  69.4002937   4.6296181
  43.1896823  70.1068352   4.9844946  79.2255728  42.9522579  20.9077896
  79.1383974  43.8116209  21.3202538  79.6483175  42.4090907  21.5729870
  64.6494532  42.1663761  59.2131424  65.4695368  42.6590347  59.1817951
  63.9669180  42.8314781  59.1235828  49.3399000  17.7526844  42.2786713
  49.9347115  18.3228433  42.7658558  49.5401192  16.8716371  42.5947380
  22.2710404  31.7904112  13.9525856  22.4646601  31.8747447  13.0189671
  21.3742528  32.1131108  14.0413155  43.4653378  43.0256891  44.8480177
  44.2760087  43.0143642  45.3568506  43.5407830  42.2737741  44.2605114
  71.1975901  52.4790250  45.2570881  72.0384924  52.0474242  45.4081978
  71.4189999  53.4040843  45.1499619  17.0907157  69.7159432  26.2089791
  16.6085713  69.6196841  27.0302548  17.9780333  69.9531005  26.4785351
  42.7756214  24.5799708  66.5671682  42.9839230  25.2568507  65.9232140
  42.4691343  23.8386893  66.0448647  81.2251091  43.3818817  60.1361179
  80.9750843  42.5304270  60.4949427  80.3931236  43.8213158  59.9602318
  32.3808217  46.0286522  59.1195965  32.6793694  45.1194906  59.0966129
  32.1656895  46.1869335  60.0387812  86.7701952  42.4176674  10.9766068
  86.6080944  42.7648573  10.0994362  86.7462008  41.4671604  10.8661808
  64.4697618  14.7214532  55.7461834  64.3934202  15.6754291  55.7644796
  65.4047251  14.5536888  55.8642292   8.1053448  13.1260383  58.6365175
   8.7428094  12.6521361  59.1706514   7.5642205  13.5965621  59.2705727
  62.6503548  10.9802745   5.0138964  62.3942837  10.2069447   4.5112814
  62.3989854  10.7747433   5.9143366  31.1767674  24.5000291  27.7560782
  32.0961857  24.4855976  27.4902129  31.1073781  25.2573752  28.3373237
   0.2552701   6.6996765  52.9305124  -0.2970504   6.8383992  53.6998844
   0.9395219   7.3650104  53.0037737   4.7106640  46.1596947  45.9568943
   4.8547499  46.8723051  45.3342690   5.5818598  45.9623568  46.3008560
  70.5157471  70.4894876  49.6063232  70.9498787  69.8222017  50.1378202
  70.0637054  69.9946404  48.9229393   8.1357520  67.1949004   2.4937929
   7.5778191  66.6974805   1.8958677   8.3542340  67.9917096   2.0104756
  35.8260632  38.6867142  58.6435032  35.3863812  38.8508415  57.8092575
  35.5367757  37.8106117  58.8984251  14.8793889  39.6138430  56.1793756
  14.6747780  39.7656512  55.2567053  14.2167760  40.1129770  56.6569138
  39.5657771  60.7964872   9.1643013  40.2829306  60.4304288   9.6819176
  39.9980681  61.2255643   8.4258904  44.3814182  21.6777778  65.3370333
  44.3968248  21.8093181  66.2850285  43.6269379  21.1082816  65.1864815
  48.7400572  61.2320279   2.5418629  49.5834391  61.4381717   2.1388210
  48.5123103  60.3701328   2.1932902  15.3731625  69.0672587  13.6180844
  16.3092654  69.2665075  13.6025490  15.0359719  69.4372104  12.8021969
   1.5162278   9.7962087  22.0208955   1.3276005   9.5619732  21.1121678
   2.4549485   9.6370476  22.1193624  62.6781368  39.1700864  56.3818741
  61.8905926  39.0364099  56.9092607  62.5707293  38.5787463  55.6368828
  76.5061466  73.2211326  30.0509895  76.1254971  72.3644184  30.2443279
  77.1563570  73.0463003  29.3706288  31.3894353   1.4065240   4.5522751
  32.2480139   1.3531993   4.1324724  31.5812239   1.6366742   5.4613890
  73.6906862  30.9513378  60.6322145  73.7404394  31.8523169  60.9515810
  74.5961380  30.6412816  60.6480122  52.7153070  71.2277914  61.8070269
  53.2341249  71.8188638  62.3526382  52.3983725  70.5583800  62.4133873
  28.0810588  69.7843288  29.2365326  28.8191741  69.1821717  29.3304791
  28.3337920  70.3625725  28.5168232  57.8799424   6.7574856  24.0397324
  57.2642407   6.2713502  23.4912647  57.3259434   7.2282145  24.6624149
  73.4426880   4.0601650  37.5322080  73.5676050   4.6979761  38.2349348
  74.3229103   3.9065710  37.1889043  28.3878407  14.0212462  14.3708862
  28.1208691  14.9104474  14.1379036  27.7841553  13.7648413  15.0680603
  19.2393010  65.7656358  17.8112568  20.1675503  65.9880470  17.7397312
  18.8578932  66.4874219  18.3110394  79.5554924  35.9525585  64.7135735
  78.9732790  35.9937382  63.9549160  80.3283978  36.4517808  64.4497156
  12.4843924  60.9838961   5.4305185  11.8165295  60.6336127   4.8410334
  13.2715266  61.0478734   4.8896279  49.8522362   3.6774132  19.8461022
  49.5288834   4.1376326  20.6206097  49.5979151   4.2363236  19.1118111
  76.4204359  61.3998365  43.7972403  75.7885981  61.6051054  44.4863510
  77.2746992  61.5220785  44.2113972  -0.1387977  28.6126709  39.8663568
   0.7882882  28.5954452  40.1039600  -0.6012630  28.5182261  40.6990862
  73.4788370  21.4365506  59.9664116  72.8238964  21.6742015  60.6227684
  72.9792786  20.9989500  59.2770815   1.8593583  28.2784388  22.2495331
   1.2863717  27.5172064  22.3414196   1.5621076  28.7064288  21.4465965
  70.0331545  27.2341800  55.7847214  70.3696346  28.0866003  55.5083227
  70.8124876  26.7401457  56.0392904  80.3992748  25.4913831  44.3308401
  80.9565830  25.3452587  45.0952196  79.7620392  26.1443424  44.6203423
  21.0632023  39.4657967  39.3537678  20.4627642  39.7821591  38.6787666
  21.7149291  38.9545558  38.8740601   7.7397442  50.5850220  39.8431206
   6.9098187  50.3655148  39.4197297   7.5456143  51.3671684  40.3596401
  60.8274841  21.7221260  48.1844330  59.9248219  21.8690348  48.4670162
  60.7694674  21.6352725  47.2329521  34.9572699  72.7157973   7.5666966
  34.3128626  73.0126928   6.9241823  35.7477229  72.5485228   7.0534434
  49.1729832  24.7197819  69.5677948  48.6252451  25.3792524  69.1419840
  48.8845253  24.7218704  70.4804945  25.2976935  64.5354389  19.1668095
  24.7249835  64.6906661  18.4157147  26.1765235  64.4830726  18.7911095
  63.0111504  73.6654758  22.3329759  63.7899065  73.8250351  21.7997646
  62.8803349  74.4814205  22.8160477   3.3838177  37.5690055  38.5144591
   3.8710976  37.1247435  39.2083025   4.0474129  38.0664277  38.0364990
  55.2846575  44.2489672  66.8009090  54.3533039  44.3205643  67.0099211
  55.6491423  45.1023054  67.0358324  61.6357312  25.1550934  17.7065624
  60.7335839  25.4481766  17.5782265  61.5523705  24.3079445  18.1443085
   6.1444562  61.2412904   1.0285916   6.1513989  62.0128726   1.5950264
   5.6894486  60.5725239   1.5404047   9.2264407  72.8087853   1.0025181
   9.9586623  72.2256254   1.2025370   9.6366112  73.5887931   0.6289114
  75.9430552  37.0165229  22.2784972  76.6004515  36.9273734  22.9685116
  75.6517267  36.1208057  22.1080732  10.4619313  78.9296246  48.8981581
  11.0345555  78.4061146  49.4587660  10.8464528  79.8060369  48.9148760
  59.8216581  19.2468596  35.4606318  59.8556709  18.3354604  35.7511973
  60.6365204  19.6316957  35.7833290   8.1065751  49.0441895  52.5547695
   8.5664178  48.2079887  52.4803638   7.3341370  48.9430714  51.9985771
  39.8472364  79.6879905  43.8697290  39.9979265  78.7895624  44.1635847
  39.7546394  79.6168997  42.9196739  51.6121769  19.9007142  58.2851648
  51.0916996  20.0193620  57.4906445  52.4680090  20.2705193  58.0683041
  16.5403168  73.2141756  15.7262482  16.1296742  73.4388302  14.8912968
  16.3764374  73.9733766  16.2857021  56.0885415   5.4105733   2.0479120
  55.7909760   4.7286294   1.4457192  56.6574177   4.9523137   2.6664652
  73.5702324  26.4661169  59.0740871  74.2179203  27.1563959  59.2163801
  72.8988123  26.6273332  59.7369862  85.1227753  61.8968152  13.8943924
  84.4279997  61.3953017  13.4677757  85.4269497  61.3297652  14.6030296
  17.8290368  23.4571886  54.2506409  17.2281075  23.6906648  54.9581766
  18.5897160  24.0221667  54.3862486  55.9712029  55.2598572  65.0120831
  55.7590103  54.9046135  64.1489458  56.0219812  54.4919443  65.5812645
  61.7664099   1.6237670  67.8025913  62.1963739   0.9225006  67.3131180
  62.4465227   2.2874343  67.9175711  10.2424417  39.0912364   4.2364897
  10.8308206  39.8461030   4.2513098   9.8818670  39.0859816   3.3498158
  52.3282513   3.0193780  21.6925015  51.6361222   2.5966666  22.2009434
  51.8661198   3.6379550  21.1267914  26.4801924  69.4391607   9.7741951
  27.1373694  68.8496898  10.1441731  26.7849772  70.3155182  10.0094284
  28.4186595  77.4766944   1.0333790  29.1397612  76.9038223   0.7725109
  27.9300826  76.9674228   1.6800369  47.5992856  10.5178616  33.5755696
  47.7242026  10.4261181  34.5201363  47.1459422  11.3547681  33.4740891
  63.9471340   8.2657498  56.0726452  64.3134117   7.7712220  56.8057966
  63.8942099   9.1659808  56.3936043  64.7670977  27.7135132   8.3265318
  64.2022149  28.0169927   7.6158680  65.5819075  28.2021533   8.2101359
  57.4341536  29.6258569  35.4844213  56.7504168  30.2954650  35.5034089
  57.9279232  29.7647500  36.2925839  19.5289033  77.8989385  18.1941857
  19.5100300  76.9626664  18.3923496  19.1241925  78.3132576  18.9562763
  74.4964838  37.2949052  36.2741518  75.2956438  37.0468950  36.7389798
  74.8063564  37.7466464  35.4892063  72.2531843  76.9905853  49.7611141
  71.7536783  76.1851168  49.8950863  71.8229818  77.6354074  50.3226852
  31.4238780  50.0214176  12.8326573  31.4229148  50.0940602  13.7870945
  31.0481970  49.1585718  12.6577439  29.3293858  56.2696028  65.3989935
  29.7784711  57.1114111  65.3221321  29.6895409  55.7401657  64.6875000
  78.1609139  24.1740773   3.5604681  78.6237702  23.7185643   4.2636742
  78.3605942  25.0993941   3.7024082   4.8262692  37.8123856  51.7702246
   4.2125416  37.4683666  52.4192381   5.1673413  38.6149549  52.1649218
  73.4059143  42.2849131  60.2702284  74.0238285  41.8305016  60.8428764
  72.5489616  42.1194506  60.6632757  75.5898476  49.3111944  50.3605080
  74.7238445  49.5763922  50.0507689  75.4141617  48.6252260  51.0045624
  57.1979666  29.0280986  62.5429773  57.3631477  28.1783700  62.9515219
  57.8467560  29.0868258  61.8416500  23.9691837  78.4241680  61.9847631
  23.1174238  78.1373239  62.3140812  24.0022047  78.0944029  61.0867643
  32.8740406  12.9122245  61.2046480  32.1838808  12.8849804  61.8673468
  33.3828521  13.6936688  61.4207172  10.9165478   5.6624681   5.6070715
  11.4134408   4.9909443   5.1397580  10.4664040   5.1855665   6.3043296
  81.6879980  74.6331142  18.2011666  80.7800047  74.6887134  18.4989609
  81.6234104  74.3660425  17.2842468  10.1839257  21.3973260  25.7681251
  11.0882855  21.4992428  26.0647488  10.0089837  22.1875548  25.2570820
  77.3105574  41.3391972  36.6286254  76.8023348  41.2514353  35.8222508
  77.1374798  40.5301905  37.1100640  55.8022785  10.0355268  69.7391272
  55.5625391   9.1722393  69.4022417  55.7094669  10.6203508  68.9870644
  79.6816158  24.7333694  31.1358213  79.2765570  24.6867037  30.2698088
  80.6076813  24.5503592  30.9772635  45.2878094   2.9567116  52.1295977
  45.1623201   2.3276889  51.4190912  45.8565855   3.6298189  51.7559004
  79.9289656  39.7740030  55.4863501  80.5942631  39.0988350  55.3530741
  80.3710556  40.4470348  56.0038567  22.9831703  74.0809030  41.0151577
  22.7560432  73.9327140  41.9331360  22.2095974  74.5037175  40.6422663
  68.3682919  33.6435437  39.7017550  67.9548264  34.2240262  40.3407526
  68.2935238  34.1110849  38.8698626  10.8579541  35.9743857  48.0882215
  10.8597184  36.1628294  47.1497583  10.0469590  35.4870296  48.2331324
  69.8294115  50.0922966  58.0746555  69.0291739  50.1918221  57.5589657
  69.8218775  49.1768694  58.3542442  17.2619630  28.1333160  55.3700972
  17.1455765  27.8975677  54.4497108  16.4016438  27.9903293  55.7646036
  73.4812641   8.0157590  64.6636868  72.8548574   7.6219219  64.0564489
  73.2696438   7.6263463  65.5120993  37.4019091  46.8001633  17.2190537
  37.0290702  46.9951306  16.3592877  38.3406394  46.9548611  17.1137108
  13.6311047  67.5994252  33.2561363  14.5239585  67.6328538  33.5995449
  13.1180565  68.1232761  33.8714375  20.6386185  33.9572382  61.3121271
  20.3966809  34.3558526  62.1480751  19.8074818  33.6690688  60.9347486
  36.1278090  21.9000218  18.0589832  35.2933297  21.7714522  18.5099281
  36.7870555  21.6010974  18.6852898  56.9375467  26.8371487  51.7055893
  57.0647430  27.7858424  51.7113066  56.3230228  26.6822028  50.9882450
  76.5753746  12.5329816  61.9915915  77.0386076  12.3485672  61.1744976
  76.1918020  13.3998954  61.8590546  11.0771275  20.4949760  42.9303694
  10.8678246  19.9532199  42.1694946  10.3758145  20.3112841  43.5553885
  57.4046406  16.6973469   6.0840477  57.9350361  16.7585967   5.2895941
  57.1898827  15.7674477   6.1575522  43.3479922  72.8503941   2.1511044
  44.1173594  72.6631020   1.6133084  43.7027590  73.0341958   3.0209269
  17.0698826  71.6844963   2.0131935  17.1092408  71.4730476   2.9459156
  17.7670138  71.1601494   1.6191115  74.9792854  68.5730671   8.5181202
  74.8127977  67.9263543   9.2038883  74.7971146  68.1083797   7.7013554
  46.0045704   0.4079220   0.7751908  46.2932191   0.8373330   1.5805020
  46.8009934   0.3210757   0.2513565  48.4332221  77.4117898  23.2511772
  48.4106867  76.4548658  23.2464089  49.3651335  77.6295231  23.2319512
  41.2615189   1.3896201  38.1758179  41.3733086   2.1666119  37.6280750
  42.1522746   1.1391328  38.4208454  77.1382666  36.9887185  62.0235968
  76.1839914  37.0523143  62.0629120  77.4486065  37.8231978  62.3751211
  60.8987181  71.3863777  37.0005860  60.4287284  72.2197937  37.0281471
  60.7767718  71.0721491  36.1046948  42.9271922   5.8852265  26.2701573
  43.6273942   5.9465001  25.6203999  42.5351462   5.0251076  26.1194100
  38.7986598  13.2379697  42.7104057  38.5154614  12.3614380  42.9706444
  38.5749468  13.2960198  41.7815270  13.5062314  65.4498339  42.2228909
  13.9609051  65.3561926  43.0599928  13.4762955  66.3944244  42.0709467
   6.8698685  69.5226787  19.0739502   7.7714865  69.3493699  18.8032498
   6.3334935  69.1371034  18.3812298  84.7257042  51.7449999  58.2958889
  85.4366112  51.4088583  58.8416529  83.9410210  51.3107777  58.6304855
  13.2883876  68.1184267  15.1906361  13.2244818  68.3011960  16.1280407
  14.0781491  68.5806392  14.9097885  32.1892056   4.8990176  16.3325657
  32.5192914   4.2296813  16.9319500  31.2889609   4.6316836  16.1473049
  83.1624875  22.9103873  12.9973950  83.0566773  23.4830687  13.7570442
  82.8537545  23.4339163  12.2579159  79.3244934  33.2835817  63.8121414
  78.4117365  33.0406928  63.9674187  79.6995497  33.3777976  64.6877480
  34.4426005  74.5036481  14.2419590  33.6880820  74.1525410  13.7690319
  34.1459220  75.3526186  14.5697750  44.2252541  44.7328091  69.9656010
  44.4785309  44.4574165  69.0845537  43.5590268  44.0993643  70.2322912
  56.9501441  69.2951225   2.4690069  57.0706599  68.5920952   3.1073345
  57.3895972  70.0507377   2.8590836  37.9843316  12.8013680  29.4185986
  37.0762000  12.5829098  29.2092957  37.9907784  13.7558959  29.4897236
  22.4844115  79.0491413  31.0544266  23.1259864  79.0561055  31.7647518
  22.9062693  78.5493158  30.3555454  63.1387615  59.4773865  37.6517630
  64.0234995  59.8396349  37.6991749  62.6657248  60.0755405  37.0732498
  21.9402203  41.2784455  51.2311329  21.9565091  41.0698292  50.2970852
  21.4098105  42.0730851  51.2898506  74.3673944  57.2858143  51.2248182
  74.0701342  56.3819981  51.3296175  74.0180540  57.5558996  50.3755569
  15.3758519  66.7339991  25.1283039  15.8527796  66.1729191  25.7398190
  14.4635670  66.6767620  25.4123749  54.8407540   1.1665890  15.1247658
  54.6974549   0.2206729  15.0941624  54.0853200   1.5381358  14.6692337
  80.9547901  53.1251431  60.4666185  81.0902691  53.8842392  61.0337591
  80.4182625  53.4567928  59.7466421  16.6825280  24.8710177   9.2324032
  16.2490068  24.6684525   8.4033932  17.5797258  25.0948260   8.9850868
  33.8231644  17.0143960  33.1579937  34.2534527  16.1835549  33.3599629
  34.1398034  17.6177380  33.8302673  65.9246907  35.0173400  20.4218830
  65.7289490  34.0983842  20.6047310  66.2640938  35.0164483  19.5268788
  44.2769036   9.5469639  11.8771328  43.8407168   9.2572186  12.6784004
  44.7570166  10.3333066  12.1367230  82.0921223  67.4081849   5.5482115
  81.8727724  68.1945442   6.0479654  82.1530334  67.7096914   4.6417822
  35.0935023   2.1274709  55.8987522  34.9837439   2.4508809  56.7929506
  35.7878153   2.6735829  55.5300713   7.2855378  77.6721096  51.8753433
   6.8130017  78.0850744  51.1525679   8.1870366  77.5997543  51.5618229
  20.5370133  58.5326980  16.6759743  21.2221425  57.8799521  16.8200268
  19.7225278  58.0298732  16.6797890  73.4884071  55.6848812  41.4029741
  72.5530195  55.8711290  41.4841509  73.5835123  54.7897291  41.7283773
  40.2967208  47.3849367  17.4521221  39.9930136  47.3410361  16.5454449
  41.2514918  47.3686354  17.3859562  47.7188620  -0.1530006  13.5607399
  47.8229317   0.7708285  13.3328404  48.5761103  -0.5410268  13.3852543
   4.5043469  43.7113237  62.1803761   4.3048382  44.0929604  61.3255167
   5.3457642  44.0969610  62.4243546  29.1567652  80.7215022  23.2721771
  29.9659007  80.2101253  23.2674946  28.4751647  80.0892590  23.5000481
  79.0454523  68.0977152  19.5746102  78.3910028  67.4659179  19.2766823
  79.8854343  67.6884721  19.3668045  52.2292805  53.9402723  44.1321182
  52.5746870  54.7255421  44.5567036  52.9076529  53.2781410  44.2648983
  69.1028580  45.8033536   2.8425183  68.6318955  46.3533375   3.4685721
  68.5196767  45.7489178   2.0854391  20.4727324  59.3385483  69.0745401
  20.8133563  60.1490212  69.4531393  19.8963412  58.9821387  69.7505426
  49.6189260  10.8754992  62.8422594  50.4846001  11.2839627  62.8423166
  49.0719748  11.4734709  62.3328447  59.9467134  29.4517684  51.0181284
  59.0442562  29.3625927  51.3244820  60.0172377  28.8276148  50.2958488
   2.3430483  61.0684227   7.6864065   2.4778693  60.1209413   7.7046456
   3.0890267  61.4070104   7.1913208  16.3498307  11.5940309  55.2559090
  15.8940221  10.7667685  55.1006460  16.8337536  11.7565012  54.4461823
  71.3318729   0.3170731  24.6073914  72.1507025   0.0942086  25.0501966
  71.4639664   0.0336221  23.7027144  80.9075260  42.0028114  67.4555969
  81.4823532  41.8095684  66.7150116  81.1612225  41.3697720  68.1272554
  56.0268076  80.4575711  30.6276321  55.1081236  80.1989447  30.7008958
  56.0596045  81.0053276  29.8433375  12.3776429  65.6996392   4.0692200
  12.4026578  65.3045057   3.1977381  11.5491288  66.1785029   4.0913834
  15.9267228  34.9955033   7.2640814  15.9891932  35.1741795   8.2023825
  15.0515454  34.6254574   7.1484818  34.8641753  16.1522388  52.3504639
  35.4746222  16.8824530  52.2486067  34.0710282  16.4381087  51.8972158
  29.6265514  73.7224496  49.5151186  30.2387341  73.0229343  49.2867756
  28.9075525  73.2752384  49.9615240  81.5482998  11.2843263  64.3217468
  81.0699940  11.4770532  63.5153294  81.3303089  10.3730786  64.5175552
  77.8841305   3.7447724  40.3428507  78.0675602   2.9203445  39.8924041
  77.4860764   4.3004206  39.6727467  52.0316847  76.1422271  52.6274586
  52.0986898  75.9253020  53.5573435  51.2520845  76.6941906  52.5658512
  70.1677132  25.5580139  52.5781345  70.6248617  26.1756396  53.1489134
  70.7101536  25.5129814  51.7907572   4.6986581  34.4527173  62.2641611
   3.8443947  34.8571968  62.4153757   5.2935410  34.9243379  62.8471947
  55.9441900  13.1698012  41.3645077  55.5871153  14.0568709  41.3216543
  55.2586460  12.6172602  40.9890652  53.0646801  47.1268845  48.0683565
  53.3630037  46.9853306  47.1699142  52.2067785  47.5406790  47.9734755
  20.2875806  20.7670593  69.7104740  21.1432553  20.9708858  70.0879717
  19.9812794  20.0082994  70.2071524  19.8520653  60.3007303  14.5877899
  18.9389365  60.4941391  14.7999634  20.1553290  59.7529100  15.3117718
  38.0911200  73.8327979   5.2624907  37.9951041  73.1230448   4.6274628
  38.2876055  74.6044777   4.7313275  57.0788574  16.1127150  29.5407605
  56.7434168  15.2726424  29.2277312  56.2952042  16.6368127  29.7064066
  55.6452894   0.7095694  26.5536141  54.9935770   0.3799375  25.9348702
  56.4675283   0.6990794  26.0636759  10.6784917  46.0930586  64.7042036
  10.7317067  45.8832455  63.7717962   9.9553490  45.5568695  65.0294685
  63.6001396  29.9800158  53.9894915  64.4314146  30.4266071  53.8289642
  63.2005405  29.8991680  53.1234550  55.2432497  61.3903953  67.2280550
  55.1411493  62.2208835  66.7631960  54.4332750  60.9134937  67.0471478
  54.2665522  34.0622477  12.8391899  53.7565749  33.6257915  12.1567978
  53.6102049  34.4155489  13.4397091  68.6560917  40.9738064  54.7802591
  69.4211149  40.6348801  54.3153954  68.1365919  41.4067698  54.1028404
  53.5172939   0.7857579  51.8699741  53.8102961   1.5444842  51.3652754
  53.9549351   0.8775572  52.7163029  21.0775511  32.0035599   4.3350710
  21.2923615  32.4099599   5.1746716  20.5545132  31.2362509   4.5672383
   4.4205380  17.4977934  69.9729872   4.4647980  16.5656269  70.1859236
   5.3093529  17.7231956  69.6983242  49.9200630  14.1181636  45.8328676
  49.5901060  13.2196307  45.8329487  50.8503199  14.0317249  46.0411406
  75.9302990  60.4977404   5.2555432  76.4481680  60.0591491   5.9305872
  75.0267879  60.4281710   5.5638565  83.5335438  53.5746454  12.0343651
  83.3586447  54.0154289  11.2028946  84.4800322  53.4318446  12.0352997
   2.4519826  22.5593615  41.2798929   2.7449132  22.4517941  42.1848011
   3.2241727  22.8814101  40.8148670   9.7770389  64.3152023  38.2061434
  10.2575953  64.5131386  39.0099573  10.4007466  64.4972170  37.5032258
  48.2803767  61.3882040  24.8621906  47.8929656  61.3852690  25.7374729
  48.8642447  60.6297194  24.8561443  60.8415477  60.9053873  22.7789272
  60.6472008  61.2718986  21.9163002  60.2420990  60.1640915  22.8647961
  24.5769828  68.6843203   0.5181755  24.6462577  68.2920717  -0.3522096
  23.6646407  68.5446976   0.7718815  18.8789981  44.2064946  25.4352059
  19.2372553  44.8703699  24.8460163  19.4940894  44.1797020  26.1681332
  42.4041693  48.6248021   9.0706124  41.8655150  48.1297736   8.4533323
  42.1039431  49.5290546   8.9788355  67.5944805  10.5320609  57.3024082
  66.9979763   9.8524761  57.6163864  68.2034492  10.0690758  56.7270565
  65.9071501  71.4126182  55.2246237  66.3985212  71.7089928  55.9907532
  65.8002432  72.1991516  54.6896791  68.5590696  28.0089378  42.4616480
  67.7844381  28.3340025  42.0028305  68.2092524  27.5347424  43.2159662
  77.9697227  60.0966167  58.3224487  77.4760199  60.9151363  58.2722664
  78.3348465  60.0909996  59.2072535  13.8722325   7.9451573  12.4313509
  13.1953717   7.5904477  13.0077815  14.6609402   7.9671353  12.9732776
  16.8532944   4.6630865  38.3234215  17.6018716   4.8719501  37.7646327
  16.9723130   3.7403008  38.5482192   5.4408169  26.3303351  50.7101250
   6.1079503  26.4503884  50.0342989   4.6168042  26.5486121  50.2747059
  10.1445294  39.8713064  24.3529940   9.6549321  39.0491772  24.3278599
  11.0486031  39.6174455  24.1674042  12.6139546  14.5154774  42.2230577
  12.7922154  13.6762178  42.6474380  13.2193089  15.1282954  42.6404715
  77.6797915  56.0703182  36.0991669  78.1578207  56.3774681  36.8694735
  77.2866154  55.2425337  36.3756084  51.3197613   0.8874913  67.7190018
  51.1754513   1.0889457  68.6435699  52.0879507   0.3164375  67.7153683
  46.2071657  19.9005473  42.5842237  45.2754354  19.9231231  42.8024054
  46.2361431  19.5518243  41.6932774  64.5783806  13.8268864  45.8838034
  64.3932247  14.7647071  45.8343983  63.7317133  13.4255767  46.0795927
  78.7700041  72.4796666  26.5459728  78.1394156  72.5540514  25.8296967
  79.5730742  72.1703119  26.1269188  83.5516644  33.2751727  37.1706748
  83.1162643  32.8225756  37.8930402  84.4858360  33.1524444  37.3394728
  68.3799314   0.8597237  42.5964022  67.6748514   0.9319223  43.2397318
  68.7886000   0.0144519  42.7827883  34.6874755  46.3865040  19.5950474
  34.7236102  46.3904409  18.6385311  35.4725306  45.9085690  19.8624195
  62.7369976  42.0186853  54.9915314  62.7384567  41.6993570  55.8938932
  62.9862165  41.2573385  54.4676352   7.0172406  21.3116813  66.4544916
   7.2418786  22.0305133  65.8636904   6.4981175  21.7229676  67.1455669
  82.9780674  30.1731467  64.1219807  82.4568558  29.4122005  64.3779612
  82.6173115  30.8948040  64.6370506  27.4948748  80.8163388  37.8121138
  27.0523508  81.6650092  37.8248596  28.4269960  81.0317677  37.8433037
   7.5255013  52.8313494  55.2177668   8.3573151  52.6630735  55.6604815
   7.6425172  52.4655247  54.3410063  23.2805142   7.7805016   2.2866596
  23.7385449   7.5136969   1.4896311  23.1830868   6.9716094   2.7890886
  36.3392997  21.3109946  39.7619963  37.2154307  21.0689640  39.4619179
  36.4878321  22.0196295  40.3881025  74.8402867   9.5069049  15.7511868
  74.5424256  10.3879569  15.5247845  74.8432431   9.4936297  16.7082848
  45.2992480  70.3936170  24.8086132  44.6024077  69.8505925  25.1770844
  45.9871905  70.3845833  25.4741158  80.6267548  46.0351562  44.6703434
  81.3566208  45.5979538  45.1089478  80.7498837  46.9635582  44.8681831
  43.8064322   2.6696179   7.8051581  44.1222367   1.9786189   8.3874048
  43.2854066   2.2090457   7.1474041  63.6075306  21.9891667  69.2220974
  63.9477873  21.2981725  68.6537790  63.7705803  21.6709614  70.1100111
  79.7913837  13.2731354  25.4747105  80.1657963  12.3926055  25.4480195
  79.4299364  13.3530521  26.3574314  84.7148323  36.5400267  61.7675829
  84.4168472  37.4201012  61.9975948  83.9920902  35.9675765  62.0248365
  13.1673909   8.6106044  63.1333303  12.5238228   9.3084216  63.0104542
  12.6443673   7.8362030  63.3406448  67.8171404  63.8187374  68.5488367
  67.6708372  64.2089237  69.4105673  66.9778688  63.4185244  68.3215046
  47.0558167  21.9156408  38.0968928  46.1633492  22.2608018  38.0724645
  46.9884348  21.0488510  37.6964378  58.6715302   9.3916342  20.6101193
  59.2196736   9.6666739  19.8751892  59.2319951   8.8082621  21.1217751
  21.7549746  71.8709730   9.7483505  21.6587632  71.3580607   8.9459194
  22.7008288  71.9299553   9.8829426  78.2157788   3.9944337   0.2808251
  79.0962777   3.6278031   0.3617682  77.8285203   3.5263798  -0.4588972
  78.9059790  71.3601900  55.2951574  78.0211790  71.3149715  54.9327803
  79.2803438  70.4965151  55.1215219   7.2305148  57.4606656  18.2907452
   6.4055579  57.7098082  17.8740753   7.1325152  57.7388846  19.2013611
  50.5573042  81.3212273  35.2903795  49.9328764  81.4589776  36.0026646
  50.2523764  81.8976978  34.5897126  25.3730298  51.9628716  46.6294956
  26.2215138  51.9904327  47.0717001  24.7435761  52.2213268  47.3027134
  81.1339092  22.6372004  45.8257675  81.6976357  22.6167750  45.0524473
  81.6027737  23.1917310  46.4493799   8.9264664  38.2446597  21.2032761
   8.4165606  37.8130314  20.5177654   9.4368014  38.9088128  20.7399239
  84.3878039  29.5964263  10.2505936  84.1856035  30.1359723  11.0149540
  84.9605068  30.1451991   9.7147907  74.0319013  60.7478189  69.0399361
  74.8219847  60.9847784  68.5542917  74.0548515  61.3022614  69.8198748
  71.4532899  45.1374912  68.0400753  70.7611369  44.5006609  68.2178593
  71.1215245  45.9591436  68.4020853  63.3271551  20.7304716  59.7853708
  62.6587248  20.1540089  60.1556778  63.7802696  20.1880836  59.1398191
  17.1540961  14.8383877  14.9581017  16.8953595  15.0559256  14.0625729
  18.1050000  14.9477027  14.9659313  46.9961152  13.4282420  34.8223938
  47.0535931  13.1849406  35.7463707  47.4541411  14.2668889  34.7666134
  70.3594677  71.9776939  56.5123238  70.0739424  71.2216185  57.0252098
  70.5075495  72.6653646  57.1614803  22.9402111  81.2480901  46.5885319
  22.9449992  80.4376243  47.0977940  22.8985439  81.9433187  47.2451462
  48.8106029  77.6303290  10.9459652  48.8248472  78.1096910  10.1175656
  48.0722742  77.0271061  10.8609642  21.3669238  26.2327883   6.0840477
  21.6697678  25.6183884   6.7526449  22.0561013  26.2228367   5.4198422
  29.1598310  66.0747598   2.7990164  30.0234888  66.0768627   2.3863138
  28.5636605  65.7922219   2.1054854  47.9572821  64.9322844  65.4038048
  47.8437710  65.3524876  66.2563133  48.8291645  65.2039862  65.1170492
  68.4413974  77.4039601  42.4735035  69.3785040  77.5672530  42.3667301
  68.2902996  76.5728091  42.0233978  40.9165279  80.3518365  49.6800102
  40.5418186  81.0885452  49.1972222  40.4913179  80.3859209  50.5369057
  62.1074757   9.2569039  51.8965592  61.5897069   9.1613982  51.0971607
  62.6988015   8.5042260  51.8902649  50.2126613  21.1128686  15.2758373
  49.3753561  21.3181422  15.6917824  50.8032307  20.9261439  16.0056271
  23.4029579  37.4698520  67.3976755  23.6907125  38.3594775  67.1927452
  23.7470078  36.9359088  66.6815948  52.1028090  58.1242132  61.7431545
  51.7370844  57.2429276  61.6668701  51.3889408  58.7036467  61.4769173
  20.9132561  14.9300788  54.2774071  21.1865410  15.5221388  53.5766853
  19.9892697  14.7564910  54.0975632  15.4778230  43.3132601  44.8602057
  15.6726074  43.4011889  45.7932425  16.3309634  43.3749151  44.4305754
  36.9799034  70.3584455  44.5956864  36.9390188  70.8164333  43.7561573
  36.9622259  71.0564707  45.2504219  48.4469561  70.6403707  52.4760498
  49.2333714  70.3458642  52.0166554  47.7225141  70.3429459  51.9256462
  11.5075907  13.9237569  32.0188011  11.0962710  13.9499686  31.1548771
  10.7762537  13.8326857  32.6296105  11.3467965  23.2388756  13.3850063
  11.2748894  23.9905570  12.7967610  12.1413073  22.7871964  13.1004585
  41.2805080  55.8661079  69.5659781  41.9447184  55.2006197  69.3865919
  41.0123777  55.6994152  70.4696083  55.7633988  72.0971654  35.9347405
  54.9409120  72.1477746  35.4477276  55.8162872  72.9304646  36.4027657
  13.4836993  26.5089772  23.3296360  14.0026555  26.3770220  22.5362171
  12.6806244  26.9302056  23.0232586  81.3739547  24.9492571   6.4743342
  80.5621275  25.3524087   6.1667027  81.3561162  24.0651152   6.1079897
  84.3287763   8.6022780  28.6653389  84.2596230   8.6260436  27.7109303
  85.2582869   8.4484170  28.8343681  11.3461003  14.8116849   1.4565481
  10.7818923  14.0907214   1.7360367  12.2097764  14.5882962   1.8035330
   4.0957492  77.7296089  19.5498146   3.6797421  77.6162695  20.4044022
   5.0344842  77.7092265  19.7358097  58.0219374  18.7451956  11.8965115
  57.6372796  19.5816252  12.1585430  58.9412424  18.8130877  12.1543945
  48.2075167  38.7797570  66.1747694  47.5213385  39.4408560  66.2660789
  48.5430193  38.9038253  65.2869225  65.1663586  24.6845982   6.2356152
  65.7749900  25.3260920   5.8691658  64.3513175  24.8252604   5.7537903
  54.9112401   1.3987181  37.3717560  54.4908986   0.5890391  37.6615395
  54.3627438   2.0955584  37.7320446  17.3450598  19.3789122  18.1216587
  17.5102267  20.0486300  17.4580063  16.6381535  18.8477156  17.7551235
  29.3371329   4.1953728   1.7602743  29.4618210   4.2584632   0.8133330
  28.3882317   4.1412900   1.8738331  52.6116371  26.0183311  57.3154497
  52.8819418  26.8030500  57.7922964  52.3336506  25.4072952  57.9977894
  42.9445056  57.4103497  53.4497894  43.8352673  57.7573739  53.4013046
  42.4469738  57.9397164  52.8265156  52.7650213  45.9417915  57.4966669
  52.5599861  46.8516254  57.2812891  52.8470421  45.9340382  58.4503126
  12.6050036  61.1573838   0.4950346  13.3859246  61.4474104   0.0235666
  11.9179385  61.1341451  -0.1710163  75.0602576  14.1685364  16.0948338
  74.7502407  14.9551795  15.6461586  75.7700297  13.8415454  15.5420841
  56.5034962  25.3185701  54.3026304  56.6711807  25.9343815  53.5892677
  57.2583961  24.7301221  54.2934847  35.9808859   7.1880314  44.5954670
  35.1743779   7.1593115  45.1102032  36.1119446   6.2854169  44.3050541
  20.0332236  67.9656172  52.3340082  20.3963733  68.1623888  53.1975079
  19.0889966  67.9058027  52.4792337  81.2664279   0.9264491  33.5550846
  81.4409622   0.4424784  34.3622650  80.6602892   0.3685782  33.0676331
  19.0240607  19.7371171  36.4327110  18.9782462  19.8531268  35.4836716
  19.3158230  20.5864356  36.7640080  20.4341269  63.4379148  36.2709785
  20.2357602  62.5238800  36.0674453  20.1026559  63.9281988  35.5186605
  81.5757450  19.8272154  52.3268761  81.4553651  19.1459105  51.6653885
  80.9768566  20.5257390  52.0629944   9.1586694  11.3671372  25.0271191
   8.7175903  11.4737008  24.1843094   8.4741983  11.0523055  25.6175484
  16.9098601  20.8399985  56.2985768  17.1408496  21.4741347  56.9773640
  17.7348313  20.4019807  56.0893025  83.7768611  19.2721150  49.6721806
  84.4571074  19.5693181  50.2764668  83.1235584  18.8546250  50.2335419
  78.4980902  23.6178181   6.1312212  78.1452950  23.0057213   6.7770590
  77.9868063  24.4175265   6.2548746  62.1946470  74.3044828  33.9455856
  62.9332058  73.9904927  34.4672932  61.9725315  75.1521514  34.3307556
  37.8915405  71.0377645  65.6807137  38.8114452  71.1919069  65.8957672
  37.4948406  70.7640696  66.5077257  25.8365893  32.7230358  68.1298876
  26.1500120  33.2942796  68.8310862  25.8470678  31.8458509  68.5128641
  73.8554136  72.6134657   6.1041321  73.6417047  73.4815191   5.7620157
  73.0494301  72.1084736   5.9964098  35.7017312  28.6343072  20.5857147
  35.1962075  29.2893288  21.0669865  36.1895213  28.1640074  21.2618221
   0.0829610  29.4961569   5.2412047  -0.4092613  28.6754153   5.2593340
   0.6619296  29.4450686   6.0017409  14.4628823  53.8153934  68.6450481
  14.0507555  54.5891953  69.0292549  14.7170007  54.0916586  67.7645159
  58.2307100  20.1262617  68.6699152  58.1941605  21.0451555  68.9354897
  58.3802986  19.6471512  69.4849634  69.4522079   1.6090367  12.7489819
  70.1030179   1.4713977  12.0607056  69.9109622   1.3892005  13.5598149
   8.7258968  11.2657473  13.2962670   9.0635738  10.4046557  13.0498375
   9.4758019  11.8530867  13.2018627  36.9777966   3.0333415  64.5263529
  36.4501572   2.4388328  65.0596380  37.5840473   2.4600972  64.0572262
   2.5585303  20.3015969  12.2132363   1.6061577  20.3574774  12.1351780
   2.8500733  19.9773238  11.3611378  15.6722626  26.6508887  32.1702542
  15.9111104  27.0773862  31.3472809  14.8273930  27.0358489  32.4031223
  38.7090683  58.6246920  63.7661028  38.3469343  58.5131311  64.6451092
  38.1670356  58.0642271  63.2108450  37.5714764  50.6299756   8.1484474
  37.1872601  49.8340867   8.5161127  37.5627980  51.2565014   8.8720669
  67.1845762  68.7276362   9.0253987  67.5112526  67.8931449   9.3617596
  67.0785348  68.5819315   8.0853142  38.7420783   4.4592068  35.8445038
  38.9724145   4.3687318  36.7691578  37.7910409   4.5676396  35.8440842
   3.6591539  22.7303956  65.9862198   4.2224083  22.6553557  65.2159275
   4.1381893  22.2748778  66.6785111  28.8399825  22.0102856  15.4101719
  29.1033587  21.3314698  16.0315193  27.9644618  22.2704528  15.6965412
  18.4700474  45.3356431  40.4655422  18.2813201  45.3324578  39.5271362
  18.4622321  44.4114373  40.7145657  73.1258385  75.4277109   0.5071177
  73.2322447  74.5077394   0.2651180  73.6906759  75.9026097  -0.1025234
  15.5844054   2.9029963  28.3367027  14.7049603   2.6524804  28.0537762
  16.1362538   2.1613715  28.0883278  65.2085702  79.8060034  14.4168629
  65.6671135  79.6260284  13.5961403  65.8748548  79.6891378  15.0940861
  19.7003398  19.0675614   3.8859238  19.9596057  18.5143922   4.6228184
  20.5146727  19.2289040   3.4094109  48.5361914  66.1455797  26.0187210
  47.8484659  66.5184449  25.4671444  49.3285481  66.2021659  25.4846825
  80.0492287  52.9283571  49.0558863  79.2054749  52.7989197  48.6228132
  80.3649044  53.7670851  48.7195635  37.9647431  35.8791134  28.3307804
  37.5680861  35.0925229  27.9563774  38.2801566  35.6020711  29.1910042
   9.6933422   1.9506953  14.1036572   9.3916425   2.3006699  14.9419464
   9.8571334   1.0235331  14.2761864  72.7134943  53.1048632  56.0537291
  72.5774336  54.0063906  55.7622385  72.4334812  53.1042528  56.9690561
  53.8337175  65.0461553   5.3577341  53.7222235  65.1627158   6.3012423
  54.7802250  65.0882100   5.2213968  63.2066838  78.7663649  28.2348026
  63.2829563  78.9853667  29.1634812  63.3800261  79.5902585  27.7794041
  31.2963376  39.4339535  30.5887665  31.6055951  38.8436005  31.2758507
  31.0154853  40.2201436  31.0570206  34.3599343  42.1577215  62.8323412
  33.4190011  42.2246695  62.9947948  34.7576284  42.7295923  63.4888744
  76.3222655   4.8971293  30.1896156  75.7539388   5.3873513  30.7836785
  76.9378337   4.4444487  30.7661404   0.2381699  52.2436474   5.6324352
  -0.0384147  51.8840180   6.4752831   1.0987942  51.8546079   5.4768480
  77.5849112   7.1191714  21.2749924  76.9388100   6.7625210  20.6654133
  78.2100233   6.4061616  21.4056935  36.7800014  73.2735704  13.9975132
  36.6444324  72.5130032  13.4323658  35.9051667  73.6439727  14.1145577
  53.7068288  79.6741651  27.2490467  53.4691946  79.6708606  28.1762661
  54.6006577  80.0162386  27.2320809  36.9013214  26.7413855  42.0878983
  36.2907743  26.9085217  42.8059006  37.1318817  25.8169270  42.1798468
  78.7173161  18.5862372  34.4848217  79.1600260  17.7758906  34.2326702
  79.3351540  19.2792056  34.2517914  22.6898909  21.8997526  70.3862762
  23.0241013  22.7652669  70.6216908  23.4316111  21.4620876  69.9685097
  37.9097901  42.8540315   8.4154810  37.0355968  42.7943628   8.8007845
  37.9473845  42.1276217   7.7932705  70.4987661  47.2131007  10.2112927
  69.5793621  47.1470796   9.9532761  70.7951204  46.3052450  10.2761234
  58.9487978  10.4778454  13.9671101  58.6586855  11.3860438  14.0522446
  59.0027843  10.3311751  13.0227532  61.4110963  40.4168137  16.9264187
  61.3994662  41.3522956  17.1288265  60.5234162  40.1179944  17.1238102
  10.4588828   6.1503861  32.8575195  10.4409561   5.1991580  32.7522816
   9.9918947   6.3094590  33.6777939  17.7280764  60.7776140  20.8518185
  18.2190601  59.9593972  20.7763924  17.8973751  61.0770558  21.7450680
  77.5486462  49.8690747  22.1051087  77.3113768  50.7745801  21.9051232
  78.0839865  49.9308805  22.8962006  61.5930287  45.0397159  13.3051361
  62.2897546  44.5191886  13.7049545  60.7856576  44.6864914  13.6787857
  83.7905876  55.6425260  20.9045185  82.8770296  55.6342600  21.1901440
  83.8384287  56.3626264  20.2757134  24.9504790   5.5265401   3.7117399
  25.3851542   4.8898146   4.2790760  24.0168938   5.3438351   3.8178791
  76.8491801  10.3929684  12.3221172  77.2890588  10.6382582  13.1361069
  76.5469214   9.4974778  12.4736561  43.5709381  37.8987122  62.1583557
  42.6263618  38.0535793  62.1535540  43.9563704  38.7651634  62.0282221
  51.3087893  43.9178801  56.1011648  50.4722118  43.9777470  56.5624475
  51.8703127  44.5572090  56.5395498  82.7864115  50.8871161  12.7446903
  83.7154715  50.6571506  12.7586140  82.7442734  51.6815816  12.2124542
  55.2858369  52.7084194   8.9672627  54.5972244  53.2505344   9.3521656
  55.2930729  51.9147860   9.5023503   2.6335981  17.0158422  42.5401115
   2.8064138  17.9418731  42.3703051   2.6513827  16.6063344  41.6751146
  33.4214878   6.8664712  60.7113504  33.8122916   7.1253324  61.5459156
  32.5369358   6.5805823  60.9395313  40.0424270  45.2069958  12.5661720
  40.0496559  45.5244823  11.6631855  40.9664230  45.1641570  12.8124012
  19.9344158  26.4034128  69.1438246  20.7825375  26.8104410  68.9670467
  20.0773239  25.8868146  69.9368811  83.7048611  15.4779742  31.3299526
  83.3720383  16.1698792  31.9015564  82.9349908  14.9489615  31.1209549
  84.5756380  74.8687576  19.1477265  83.8337748  74.3057059  19.3687405
  84.5267765  74.9670647  18.1968464  41.3379526  35.0055575  60.9090662
  42.2383928  34.7135258  60.7670689  41.1373234  35.5441713  60.1436377
  54.0323798  77.8196310  17.4943985  54.6431391  78.4674548  17.1429409
  54.0578358  77.9555939  18.4415592  40.1210260  26.0796547  39.7978926
  40.8897638  25.5198121  39.6890497  40.4599380  26.8744564  40.2097893
  26.5145669   2.6950047  24.0232433  26.4822182   3.6323569  23.8320412
  26.0100970   2.2892020  23.3182110  55.3073971  68.0556391  44.1215481
  54.3824903  68.2976626  44.1684975  55.3002827  67.1103118  43.9714207
  80.9750279   6.7129538   6.1600889  80.9027275   5.7584975   6.1648668
  80.4681715   6.9953606   6.9213833  30.0368571  33.9147401  70.5005455
  30.9712481  34.0813637  70.3765297  29.8481965  33.1709194  69.9283886
  56.9846670  66.3558744   5.2253069  57.3740952  65.8132838   5.9109940
  56.8887155  67.2187947   5.6282820  10.1784668  17.1225760  11.5867581
  10.5955896  17.6692984  10.9209313   9.9903140  16.2988970  11.1368813
  49.0004127  35.7534425  21.4446415  49.5897524  35.1301257  21.0199227
  49.5805137  36.4240320  21.8052258  14.6119397  57.5242888  53.1595768
  14.4277756  56.5873073  53.0933727  14.6234648  57.8307711  52.2528423
  84.7022709   4.1656087   2.7560581  84.6429857   4.9691126   2.2392382
  85.3140053   3.6127255   2.2699131  53.4163904  36.4837241  68.5036039
  53.8525963  37.2989607  68.7512922  52.5107813  36.5997219  68.7910891
  21.7372927  16.2734578   8.1638731  22.2532258  16.1549208   8.9613642
  21.0585103  15.6005356   8.2155098  70.2015535  62.8677438  11.4078678
  70.9760706  63.0451296  11.9416203  70.5391399  62.4002789  10.6438317
  51.4065027  42.7352858  62.6489067  50.8638763  42.2954273  63.3033562
  52.2942686  42.4239302  62.8254080   9.3502435  12.2557423  18.7143006
   8.4503398  12.5645754  18.8193001   9.4146762  11.5018294  19.3005623
  62.7737761  20.0013852  56.3658905  63.3928299  20.6280780  55.9913778
  61.9594336  20.1533985  55.8863401  40.3880343  12.0209048  16.3208164
  41.0442910  12.0899890  17.0142044  40.8765635  12.1758292  15.5123772
  86.5426954   0.4344294   2.5437321  85.7439312   0.5354760   3.0614151
  86.9940981  -0.3094747   2.9425730  13.6389336  17.4646733   9.7038426
  12.8457389  17.9732106   9.5351376  14.3461928  17.9954264   9.3373455
  53.6179661  14.9383376  30.9884228  54.4018080  14.4153664  31.1567177
  53.8939574  15.8411906  31.1462940  50.9625244  55.7426643  60.8076668
  51.2804699  55.1388359  61.4788818  50.2530241  55.2677155  60.3749228
  51.4656878  26.7231655  45.5105686  51.6778803  25.7898116  45.5031109
  52.1480227  27.1281958  44.9752140  32.7694831  12.0428250  23.8392700
  31.9612918  11.6074870  24.1104473  33.2149729  11.3992188  23.2883228
  11.9152341   9.9680922  27.4675144  12.6853976  10.4942486  27.6825585
  11.8901906   9.2921994  28.1448425  81.3418484  42.9347658  64.8531485
  81.7369843  43.4335518  64.1380882  81.0331917  43.6006021  65.4676580
  77.8506693  15.4848788   8.2502951  78.7093529  15.2444050   8.5982384
  77.4795779  14.6599934   7.9371037   9.5122776   7.7667687   1.7510046
  10.3297171   7.9691670   1.2959685   9.5102105   8.3495448   2.5103439
  74.8534672  74.9745964  28.7435593  73.9604942  74.6452259  28.8452686
  75.4017679  74.3156432  29.1694512  42.8456680  70.3349255  41.0859741
  42.8127508  69.3850301  41.1993374  41.9919626  70.6422494  41.3908924
  54.9197809  72.0686768  20.1833977  55.6231515  72.5242065  20.6459965
  54.1700403  72.1210836  20.7761635  61.9904714  16.9356320  10.5384983
  61.4442196  16.4544747  11.1600556  61.6256407  16.7181800   9.6806873
  49.2000341  39.4083929  56.0659456  48.5396385  38.9002657  56.5370226
  50.0033903  38.8950944  56.1518192  84.5075409  36.6188522   2.1675839
  85.1467125  37.3097317   2.3418917  84.9959557  35.8045970   2.2887148
  84.5935432  75.4804896  16.6068520  83.9814322  75.0985192  15.9778465
  85.1390640  76.0678767  16.0837711  11.8932479  31.0434537  29.0540280
  12.0583336  31.9401871  28.7627377  12.3488133  30.9765123  29.8931946
   6.3733428  51.8676530   3.9233555   5.6810181  52.5211059   4.0229477
   7.1353476  52.3685037   3.6322703  59.5263164  56.1210381  18.3371319
  58.9979999  56.6803788  17.7677025  59.6556584  55.3186177  17.8315415
  36.9302011  79.7084379  69.8926401  35.9743285  79.6582270  69.8883438
  37.1650600  79.8813200  68.9809465  66.3087313  67.8843616  41.7141403
  66.7788021  67.3870681  41.0448422  65.6272809  68.3516215  41.2308945
  19.6520083  72.0186781  15.6903423  20.2039712  72.7333354  15.3727974
  18.7843840  72.2096490  15.3339924  78.4773676  59.9177991   7.9658522
  77.7881710  59.2910229   7.7458634  79.1293470  59.8097013   7.2734179
  66.4677422  70.6195782  15.8274140  65.8549277  71.0412143  16.4298405
  66.0932891  70.7714056  14.9596752   5.9583609  48.6314862  26.0178818
   5.3028672  48.7746082  25.3351845   6.6877453  48.2085620  25.5647148
  70.8097879  10.2647828  65.6976414  71.4641134   9.9520444  66.3223743
  70.0199739   9.7668790  65.9086466  77.2365817   9.7226260  20.5707897
  77.5022110   8.8438866  20.8418907  77.7709552  10.3099606  21.1053051
  46.8367958  24.3767285  58.4010172  47.3334217  23.7445068  58.9205265
  46.8630314  24.0278435  57.5100517  19.4500503   7.7205966  25.5227055
  18.8513288   7.8859637  24.7944130  19.0151700   8.1071398  26.2827744
  46.0994577  27.0592690  62.9776001  45.2925634  26.7535663  62.5632334
  45.8454847  27.2579598  63.8788509  50.3106372  45.3561936   1.5382876
  49.5769612  45.7634162   1.9988550  51.0605876  45.9155451   1.7406000
  25.7225745  49.5234899  26.9052948  25.6517642  50.1269053  26.1656346
  25.5401271  48.6620556  26.5299668  74.5179264  59.6343015  29.9752392
  74.5627920  60.1537882  29.1725220  75.1882402  60.0134693  30.5436958
  81.5916578  57.9112636  47.8842510  82.1749775  58.0822466  47.1448387
  81.6292755  58.7109791  48.4089150  50.7942597  80.0410245  23.3196320
  51.2734072  80.2817844  24.1125263  51.0990993  79.1571163  23.1146683
  76.1229746  64.3523906  16.5674366  75.9271328  63.8811635  15.7576050
  77.0765011  64.3143390  16.6420807  67.1507835  59.6617746  61.7416811
  67.4695873  60.2044010  61.0204601  67.3292208  60.1786566  62.5273180
   8.6030476  71.0007738  27.7987351   8.1803601  70.2289103  27.4221768
   8.3637993  71.7162369  27.2095741  79.5867102  74.8589204   0.4223217
  79.2936317  73.9679073   0.6131949  79.9401752  74.8096942  -0.4658638
  60.2262775  71.3824223  29.2015042  59.5487635  70.8210896  29.5784821
  60.5669276  71.8792533  29.9453797   6.0390362  12.6306317   4.4128288
   6.1204443  12.0125840   3.6864533   5.3292308  12.2776053   4.9492802
  18.8219437  24.2997239  35.7824387  19.5126376  24.9616692  35.7507767
  18.2010684  24.5688460  35.1054444  65.4680149  64.0663551  32.7394261
  64.9230520  64.8067092  32.4727406  64.9182527  63.2975219  32.5881352
  67.0682868   3.9762709  25.9993424  67.8575155   3.9749644  25.4577316
  66.9472429   4.8937199  26.2440361   8.4805958  72.2593235   7.7069630
   9.1795199  72.9022192   7.5868858   8.6718743  71.8526195   8.5520901
  51.7980381  10.9102128   4.2784466  51.1430111  10.8054135   4.9685110
  51.9142344  10.0291989   3.9227118  31.9050145  35.1367378  41.0392427
  31.7261863  34.2248845  41.2689734  32.4054146  35.0848627  40.2249098
  29.4476733   3.7772391  16.8234982  28.5089287   3.9565108  16.8768753
  29.5116362   2.9975579  16.2719216  54.0617561  30.6280041  51.3236523
  54.2470837  31.3084388  51.9708729  53.5815668  31.0811019  50.6305790
  29.9537563  29.2044663  66.1665344  29.9401736  28.7870383  67.0278120
  30.8798480  29.2261672  65.9254694  67.1653382  73.6689757   9.2874111
  66.9776194  73.6271046   8.3497299  67.6951472  72.8908108   9.4605889
  80.9292595  62.7815817   0.7480301  80.4473249  62.6479195  -0.0681244
  81.6746799  62.1842478   0.6865944  18.9405530  58.7683986   8.4175886
  18.9597886  58.6919378   7.4636425  19.8600094  58.7241040   8.6800064
   2.7676623  59.6862863  12.4464192   3.6626809  59.7491871  12.7799286
   2.4670165  60.5935727  12.3947109  39.9156213  35.8969998  55.1977539
  40.6109953  35.8087230  55.8495951  39.2471886  36.4277816  55.6309938
  46.7337672  71.1272048  34.3985333  45.8374719  70.8110307  34.5122017
  47.2744159  70.4850219  34.8584522  37.9448223  75.9158134  68.2300758
  38.1094432  75.0951576  67.7656889  37.0103765  75.8911610  68.4360695
  50.8081977  72.7994774  37.2317471  50.8535926  73.4807156  36.5608658
  50.9574477  73.2639931  38.0552639  77.1300213  61.2727426   2.9614605
  77.6929085  61.9865964   3.2611336  76.5997021  61.0487197   3.7261833
  44.5098925  57.3840141  68.5589981  43.8679457  57.1097994  69.2139339
  44.9494314  58.1365681  68.9548540  73.1630747  80.1724337  10.7259716
  72.9955570  79.3333767  11.1550965  73.9845650  80.0397204  10.2529205
  73.5930244  66.6137098   9.9863114  72.7810328  67.0982097   9.8374333
  73.3116667  65.7073592  10.1112045  51.6419506  10.7615650  53.3480072
  51.1689520   9.9574167  53.1338692  50.9717751  11.4448452  53.3330250
  12.9455552   5.5309031  30.9367241  12.2818408   5.3967593  30.2601780
  13.1717572   4.6478579  31.2287773   5.8743041  38.1705155  11.0265698
   5.8551638  38.6763397  10.2141632   4.9632447  38.1535538  11.3196816
  82.3595421  80.4600833  35.7074513  81.9916479  79.9324320  34.9985947
  81.6959326  81.1285709  35.8776821  72.9913704  76.2001084  20.0374474
  72.9666798  76.6057204  19.1707863  72.8590910  76.9270443  20.6459679
  86.4656507  39.0429235  52.3453665  86.0472360  39.3723798  51.5499926
  87.3154205  39.4828916  52.3688221  55.4314916  77.7815507   5.1981129
  55.3068034  78.3227347   5.9777321  55.5180804  78.4102033   4.4815029
  41.2708029   6.2447236  10.4957451  41.6034112   5.3590701  10.3500904
  42.0436272   6.8052266  10.4263748  78.3563845  66.8925809  24.5837464
  77.7828447  66.5876244  25.2868046  77.7734940  67.0119785  23.8339390
  83.6968422  26.0815763  64.1487980  84.4736099  26.4634848  64.5574665
  83.9141750  25.1557589  64.0399075  11.7189210  51.4950811   4.2188992
  11.3101618  51.7895113   5.0328125  12.0320599  50.6118404   4.4139923
  37.5936937  46.5886068  66.6813183  36.7246556  46.3608027  67.0116377
  37.4619794  47.4094105  66.2068033  23.3876061  55.6261539  51.0009289
  24.2583442  55.9284210  50.7427073  23.1529880  54.9770069  50.3377581
  76.3730089  62.6459645   0.5266108  76.5628092  63.5631488   0.7240452
  77.0663778  62.1571015   0.9698834  12.8896439  62.1657991  51.5847826
  12.8098691  61.9924688  52.5227737  13.8270497  62.2996378  51.4448261
  75.6136950   0.2399609  21.4466633  75.1436922  -0.4729154  21.0140766
  76.4187821   0.3391287  20.9384979   0.6978743  67.3324011   9.0761484
   1.2964146  68.0100130   8.7617840   0.9177201  66.5589546   8.5568394
   4.6742661  80.6630445  70.1939154   4.1158326  81.4401266  70.1709557
   5.1543506  80.6885625  69.3662071  64.1602723  52.7992688  31.5290512
  64.9222438  52.5006341  31.0326161  63.4406917  52.7797400  30.8981384
  67.8361265  76.6575240   8.8991131  67.6564042  75.7181476   8.8602890
  68.7895290  76.7166399   8.9604534  65.9265145  15.5644486   8.0668987
  65.8887484  14.6938203   7.6709093  66.5884694  16.0311053   7.5567211
  10.0072488  18.1296466  16.2051357   9.0946946  18.1886218  16.4879765
  10.5142102  18.2137272  17.0126976  48.6508374  56.6698633  16.1526932
  49.3159286  56.1737357  16.6299118  49.0696685  56.8941198  15.3217091
  31.1366885  70.7938670  37.7606072  30.3831904  70.9749507  38.3224644
  30.7692092  70.7350324  36.8787159  11.6883454  21.3912890  10.3174271
  12.2434840  20.6729672  10.6208481  11.0331783  21.4955828  11.0074295
  76.4034637  16.0360072  23.1523194  76.9999429  16.0196946  22.4038757
  75.8018502  15.3083012  22.9950394  77.6750084  12.7093527   4.4458021
  78.0208429  13.5657523   4.1943850  77.7727303  12.1715090   3.6600508
  38.3282614  22.2816133  69.0950155  38.6737227  22.0472121  68.2336569
  37.6166892  22.8942490  68.9090776  42.0040655  20.0608087  64.7530031
  41.4224625  19.3989372  64.3789768  42.1938753  19.7418094  65.6352949
  31.4748120  68.9410114  49.4590998  31.7583060  69.5995903  50.0932503
  31.0913157  69.4474411  48.7430763  54.4666147  72.6596880  69.4647121
  53.6114311  72.2566366  69.6145296  54.4044256  73.5170031  69.8858690
  49.5573489  61.7956303  35.0993504  49.7100822  61.0979866  35.7366814
  49.8661510  62.5899647  35.5351223  18.5154662  38.9299367  19.9990524
  18.2005534  38.9910386  20.9008946  19.1448817  38.2089255  20.0134720
  49.6298409  11.3114393  70.5717468  48.8984632  10.7108295  70.4282427
  50.4099894  10.7844353  70.3989410  57.8577185  52.7753496  46.2277746
  57.6408577  52.9676676  45.3155184  57.6789665  53.5921335  46.6937685
  76.5603765  16.8517373  48.8781990  77.1020469  17.5595782  49.2271866
  76.6810140  16.9030068  47.9300179  13.7232971  15.3711033  66.1402273
  13.3050823  16.0254824  66.6997957  13.6604977  14.5555282  66.6373444
  62.3816196  55.6598662  11.6074242  62.5605742  55.8309625  10.6827988
  63.0323235  56.1810266  12.0777573  67.5855532  21.9237635  13.1308521
  67.7587732  21.7582629  12.2041191  68.3399877  22.4321864  13.4284558
  43.6815882  13.6836374  58.9012623  43.0558777  13.0711329  59.2879915
  43.1778669  14.4859457  58.7641478  60.6386654  69.7000264  14.3724884
  61.2724654  70.3412245  14.0509476  59.8927109  70.2251695  14.6623291
  33.3798918  22.5899813  18.4115090  33.1468043  21.7059348  18.1280197
  32.5451645  22.9925845  18.6510433  13.5314834  54.7769356  59.1545057
  12.5975049  54.9723959  59.0789223  13.8937175  55.0037050  58.2980013
  83.4877579  77.9838275   6.8045391  83.2812111  78.8437961   7.1706309
  82.9409163  77.9191969   6.0215868  79.5303337  78.4150742  14.1831555
  78.8743250  78.3137129  14.8728050  80.3534691  78.1524561  14.5951142
  11.7668090  31.0935853  51.7342629  11.7946849  30.1993630  52.0745911
  10.8387074  31.3272402  51.7505802  51.6430251  63.1286071   8.6103453
  51.2477724  62.2574853   8.5763468  51.2075297  63.5607074   9.3450989
  13.9509785  41.6370726  57.8476906  13.3882570  41.6226101  58.6218786
  14.8332131  41.4934492  58.1901360  61.2569825  74.3622755   4.0617909
  60.5289881  74.7960757   4.5068468  60.8422844  73.8499878   3.3676590
  45.4717986  74.8403524  21.9833149  46.3947479  74.6463131  22.1468510
  45.1041452  75.0049614  22.8516258  77.4742357  72.6212977   9.0178122
  76.6305630  72.1795176   9.1141619  78.0475227  71.9606470   8.6290754
  71.6033825  13.2514928  17.2551979  72.3066005  12.7422831  17.6582207
  71.5809664  14.0670130  17.7558483  43.6515284  44.1293001  63.2556200
  44.2810106  44.1096926  62.5347853  43.1406021  44.9247646  63.1058502
  73.3951283  56.1631107  67.9418039  73.6605120  55.4440022  68.5151196
  73.8662338  56.9249105  68.2793713  75.5143222  34.2043803  28.5818161
  75.3105542  33.5685990  27.8958859  75.9712347  34.9109099  28.1254353
  18.9658770   2.2121642   4.3202128  19.5517859   1.6168330   3.8527502
  18.9689669   3.0125401   3.7952151  50.8639566  77.2151302   7.2975363
  51.6301386  76.9432901   7.8028073  51.2270205  77.5923704   6.4962210
  82.4093430  60.4884683  16.0629715  81.5278761  60.1252471  16.1485161
  82.3563187  61.0696434  15.3042473  71.3543407  72.7677177  14.8489536
  72.1983330  72.3273300  14.7491326  70.7742922  72.0955680  15.2067055
  73.4503929  65.7156466  43.1426777  73.6539356  64.9135183  42.6616444
  72.4986975  65.7972072  43.0805649  83.1768664  33.9869664  31.2432446
  83.8656029  33.6910842  31.8384995  82.4144706  33.4575150  31.4770569
  86.4216312   3.3069871  10.0352348  86.5298327   4.1087554  10.5467953
  86.2125429   2.6351807  10.6842293  34.3248027  79.5245670   8.6081566
  33.5806410  79.5206450   9.2101826  34.8280089  78.7452959   8.8442721
  62.8478972  53.2468771  16.1112847  63.7797896  53.0492328  16.2048020
  62.6641814  53.8722728  16.8122543  80.1996040  50.2549458  42.9814196
  79.6374369  50.9107494  42.5689697  80.6660652  50.7353830  43.6653948
  32.8115067   1.0313914  16.3012661  32.9470906   0.9279034  15.3593887
  32.0274958   0.5151627  16.4885391  67.6343155  71.2960482  46.8225002
  68.4539366  71.7794847  46.9261408  67.0211267  71.9381189  46.4647675
  41.2966279  63.7368797  26.0358586  40.6124560  63.3742593  26.5985741
  41.1526541  63.3213876  25.1856388  25.1143870  10.3570674   8.1133999
  24.3941435   9.8317120   8.4619488  25.8834729  10.0628541   8.6014380
  45.8789015  23.1490612  69.3871069  46.5114689  23.0238891  70.0945091
  46.1328459  23.9786530  68.9827299  30.5575642  24.0210126  38.4280457
  31.3570866  24.5365451  38.5339417  30.4112324  23.6266253  39.2878594
  33.2524896  68.0332565  67.8753710  33.9157319  67.8780937  67.2028589
  32.6940846  67.2564125  67.8447914  37.8216243  35.9907079  70.3717947
  37.3431277  35.9617281  71.2003040  37.8501582  36.9199848  70.1440620
  70.8808319  50.7291918  36.9476284  71.1478989  51.0407673  36.0828556
  71.6940538  50.4348724  37.3578419  28.2744074  40.0946903  56.2547350
  27.9947186  39.3004370  56.7098856  27.4605322  40.5619287  56.0662508
  72.1885435  38.3929764  36.9001068  72.5089352  39.2939757  36.9423260
  72.9775516  37.8633385  36.7852844  85.4405889   7.4770091  42.6624359
  85.5661997   7.7605174  43.5680164  84.5438656   7.1430419  42.6382126
   3.1649630  78.1893991  24.1078533   3.4210627  77.7678941  24.9282040
   3.8847964  78.7890886  23.9117970  16.4281619  71.3500261  56.2664604
  16.1056030  71.5530062  57.1445179  15.9700143  71.9659710  55.6946707
  57.9010407  52.6944898   4.8365750  58.2603065  52.1518324   4.1346611
  57.7010147  53.5301338   4.4147696  35.7354879  46.5885258  59.9108267
  34.9246264  46.0906887  59.8064613  36.2052917  46.4564657  59.0873718
  49.5390940  20.5138803  56.5402269  48.6911440  20.4613495  56.9811916
  49.7979498  21.4312840  56.6273737  28.9793594  51.9537641  69.2467451
  29.4983490  52.7447892  69.1012764  28.0942448  52.1943117  68.9729929
  61.4505021  73.0480860   8.1996741  61.5556685  73.9520238   8.4964337
  60.9325020  72.6290964   8.8869538  57.6889563  68.7945509  48.6472511
  57.0760822  68.9661980  49.3622017  58.5151577  68.5882425  49.0843534
  80.6384783  33.0243325  61.3543749  80.2945476  33.1304264  62.2413301
  80.1156139  32.3164868  60.9778166  84.9756567  68.3517002  10.1738991
  84.2796366  67.8917502   9.7046055  85.7798664  68.0914854   9.7246994
  27.2070059   1.0338090  34.2979111  27.0271096   0.2492831  33.7798561
  27.8327021   1.5306590  33.7707581  56.3281505  37.8570189   4.0767588
  56.4455764  37.7594687   5.0217070  55.9877245  38.7450156   3.9681162
  53.6249463  52.6702641   6.7381252  54.3442838  52.7280687   7.3669686
  53.1478874  51.8801688   6.9918884  23.5555409  58.0757176   7.0148863
  24.2421286  58.7423800   7.0346369  22.9911755  58.3346425   6.2864031
  63.0849552  12.1006382  62.0958853  63.7393332  12.2361159  62.7812052
  62.7480650  11.2193334  62.2572565  79.3925827  18.8915014  68.4337950
  79.2502820  18.6004651  67.5330830  78.5117459  19.0105045  68.7890339
  54.2420403  29.3239342  23.7165512  53.8670532  29.8996793  23.0501141
  53.7107722  29.4828259  24.4967713  33.3279727  65.3700017  44.2616715
  33.8766153  66.1429595  44.3949379  32.4540628  65.6460737  44.5378842
  34.8860352  51.5278123  23.8232006  34.6784930  52.4236761  23.5575165
  34.1166197  51.2392281  24.3140663   4.7029631  49.6819066   9.7609772
   5.2815573  49.2311107   9.1459669   4.3493788  48.9840983  10.3125920
  45.5705500  36.9967270  65.6691980  46.2817383  36.7276549  65.0877810
  45.6500340  37.9492712  65.7199049  15.8745778  25.9088469  68.2049990
  15.3635395  25.1654625  68.5250807  16.2635529  25.5978727  67.3875475
  15.7322209  47.5574522  26.1345925  16.6185658  47.6336561  26.4878906
  15.4355042  48.4620319  26.0349621  66.6059780  55.0330877  68.5835218
  65.7453394  55.4508495  68.5517216  66.4802074  54.2679214  69.1447163
  56.3409154  73.8855361  29.2390598  56.0955111  74.7857236  29.0253510
  57.0110528  73.6603449  28.5937370  85.0964062  45.7008790  37.5150170
  85.7508795  45.4195885  38.1543698  85.2491943  45.1410873  36.7537560
   5.7665596  11.7829583  32.6963772   6.0508642  11.2296031  33.4238400
   4.9758467  12.2152445  33.0190815  37.6014886   5.0217745  19.4779457
  37.4266038   4.0861628  19.3765606  37.3269543   5.4082368  18.6463703
   5.1823657  39.4811352  17.1565689   6.0711043  39.2072252  17.3831715
   4.7958558  39.7527719  17.9890694  56.0281484  43.8507427   4.1992058
  56.6467206  43.1216006   4.1550173  55.8886353  43.9900462   5.1358809
  85.5795249  32.3229668  14.4252648  86.2886461  32.8087256  14.8464741
  84.8117122  32.8858683  14.5244564  13.9560502  56.2153624   0.5269970
  13.8021557  56.6827892   1.3480105  13.6838620  56.8308507  -0.1536785
  38.4247231  51.5913582  66.1548519  37.5262213  51.6849804  66.4713287
  38.9686465  51.8609858  66.8949032  77.2481386  57.5709878  10.2556671
  77.2861759  57.1092163  11.0932507  77.2867958  58.4979426  10.4912342
  25.2496037   0.6539557  15.8140530  25.8663687   0.0632165  15.3817810
  24.6082387   0.0730298  16.2232079  58.5351038  20.4864621  65.2797508
  58.3695173  21.3929296  65.0206566  58.0813169  20.3899622  66.1170053
  31.1073947  45.9243011  68.1436920  31.0866761  46.7101812  68.6897612
  30.1964521  45.6323338  68.1094837  56.1377048  43.0407715  70.2140617
  55.3360176  43.2849932  69.7515869  55.8366919  42.5086355  70.9505749
  28.0038524  24.0089917  70.3421068  28.8867927  24.3686104  70.2565193
  27.5686717  24.2449689  69.5228624  38.1411080  81.8408369   2.7815403
  37.5091861  81.4993118   2.1488728  37.8182034  81.5376638   3.6300959
  38.1657109  21.9183896  20.1889195  37.7184996  21.8431161  21.0318722
  38.7333521  21.1486838  20.1493611  69.1736309  56.4621602   9.2432369
  69.9171011  55.9445165   8.9341606  69.5707075  57.1874116   9.7254910
  85.1599312  42.0275545  65.8450413  85.8118820  41.7313719  66.4802361
  85.5830097  42.7551699  65.3891611  84.6181393  41.9129467  61.4411497
  85.4301071  41.4234447  61.5727758  84.0242195  41.2853718  61.0292816
  11.4068207  25.5878756  18.3521713  10.6984934  26.2313054  18.3297886
  11.6350159  25.4507802  17.4327339  32.9475890  70.7766031  25.1369442
  33.0357538  70.0526880  24.5169319  33.0478658  71.5638612  24.6017803
  35.0351891  26.8110774  18.7265076  35.6286130  26.0821507  18.9074482
  35.3433737  27.5174210  19.2942490   7.1449742  15.7815812   0.5774416
   6.5542802  16.2307379  -0.0271784   7.7185926  15.2643893   0.0120129
  37.9796013  22.7627871  34.6957745  37.9637847  22.6566098  33.7446083
  37.9060921  23.7073014  34.8325886  32.9581237  15.7884634  59.0146160
  33.8696551  15.9216726  59.2746162  32.6746464  15.0251174  59.5177794
  22.3177760  80.9578632   1.1407532  22.5805991  81.8687700   1.2726750
  21.3730185  80.9564947   1.2945761  13.0066001  30.6190825  70.3201294
  12.8575587  29.6979380  70.5334663  13.2566047  31.0202837  71.1524582
  67.8009319  59.4112158  54.3323040  68.0277395  58.8854408  53.5652637
  66.9751644  59.8342800  54.0970278  42.2222757  58.6079216  65.0225353
  43.0169868  58.3235979  64.5710659  41.8022919  59.2122555  64.4104624
  47.1624041  43.1030798  62.6544476  47.0802784  44.0091753  62.9518890
  46.6744661  43.0760145  61.8313980  34.0018392  43.7718487  57.0285702
  33.4718847  43.1573296  56.5208817  33.4737873  44.5693350  57.0660591
  69.5435755  61.6105341  37.6424946  69.5772783  62.0765470  36.8070664
  70.1164953  62.1139978  38.2208695  28.5764012  21.2860224  12.2236599
  29.4571242  21.5872309  12.0004238  28.5190949  21.3959000  13.1728043
  37.0283780  30.5456755  26.2811245  36.6628632  30.3575871  25.4166855
  36.6589532  29.8699353  26.8495812  70.5939674  36.8710089  53.7898874
  70.4512930  36.6779280  52.8632832  69.8421144  36.4796472  54.2346191
  40.7691292  69.2392181   2.5090183  40.7688932  68.8948344   1.6159166
  39.9186580  68.9820598   2.8651060  53.7893185  21.2516663  33.2730831
  54.7234711  21.4581273  33.3042874  53.3557591  22.0628283  33.5381760
  58.0238819  54.7538853  50.0141525  57.3808765  55.4128838  50.2758741
  57.4999237  53.9880514  49.7792244  51.7535345  74.6680688   9.4046463
  52.2273700  75.3944801   8.9996304  51.5156404  74.0993594   8.6723866
  47.3611736  81.5678596  70.5864000  47.7289200  82.3608780  70.1963711
  46.9317484  81.1195564  69.8578072  22.6921878  12.2223256  39.6705116
  23.5077366  11.8720982  40.0289025  22.0041260  11.7133401  40.0991596
  71.1105959  80.1225065  39.7712197  70.8441488  79.4936560  40.4418816
  71.4585583  80.8654975  40.2642883  84.9225220   5.0455020  14.0365853
  84.4635614   4.2131064  14.1493191  84.2548641   5.6435750  13.7007775
  30.9493909  23.7301324  18.8435902  30.0210223  23.8193486  18.6281742
  31.2733254  24.6299241  18.8844647   8.0554145  55.9800159  31.0077252
   8.1263869  55.0254546  31.0047211   7.7248995  56.1983608  30.1363339
  29.8159203   7.2203753  19.2229714  29.3341336   7.1165249  20.0435414
  29.5031533   8.0512355  18.8650955  64.7285700  58.7443113  58.7057495
  64.5266247  59.5631361  59.1584921  64.0609646  58.6771250  58.0230904
  45.3561577  13.3744309   3.1490435  44.6042475  12.7884219   3.0627073
  45.0188479  14.1268370   3.6351885  81.7531475   8.8922236  29.2094959
  82.7031621   8.8780234  29.0933098  81.4540824   8.0619071  28.8388695
  54.5748601  13.7424777  26.1923279  53.8964448  14.4090912  26.0845818
  54.2376408  12.9794953  25.7228913  60.2236924  23.9445708  24.0857090
  61.0062394  23.5161183  23.7388863  60.2309308  24.8150656  23.6876930
  21.2045989  25.9037278  10.3508057  20.9652505  25.8018944   9.4296230
  21.9242701  25.2861760  10.4809632  50.5669403  58.6938667  52.0185471
  50.6539297  59.6404219  51.9058704  51.1082745  58.3191967  51.3236952
  13.0440602  12.4942038  15.5432858  12.8939089  13.1955979  14.9094643
  12.3343405  12.5894044  16.1784805  48.3769974  17.6062033  14.7965874
  48.4853110  18.3475850  14.2008938  47.4860940  17.6984332  15.1342453
  19.8320365  79.8214674  65.2647924  19.0950775  80.3682709  64.9925232
  20.1061058  79.3731737  64.4646978  18.0997698  70.8215998  38.5505737
  17.4421208  71.1665462  39.1545071  18.3063309  69.9518131  38.8926853
  72.2004744  22.6173947  16.0563435  71.3728413  22.1385358  16.0122074
  71.9977256  23.3992264  16.5700211  78.0699047  52.5728009  15.2002396
  78.5562357  52.6661084  16.0193886  78.4340629  53.2476018  14.6273007
   4.1636563  17.1176565  58.5155201   4.8608113  16.4617991  58.5075378
   3.3554650  16.6074932  58.5682821  27.2227368   9.8814032   2.1286549
  28.1290612   9.9917100   2.4161305  26.8202719   9.3400166   2.8077377
  26.0118914  24.0609455  65.8235025  25.1908493  23.7172008  66.1755848
  25.7541370  24.5318055  65.0309849  20.1284155   5.2043793  34.4258751
  20.4156909   6.1168215  34.3918671  20.8330998   4.7154162  34.0009464
  32.9089722   0.0101540  31.4545120  32.3393044   0.7122347  31.1402001
  33.1052527  -0.5068853  30.6732430  28.1342015  21.2917302   9.4841637
  28.5644850  21.3902495  10.3335060  27.2658810  21.6744683   9.6097435
  84.4247827  10.0584386  20.3465714  83.7217888   9.4089911  20.3623928
  84.9217590   9.8541949  19.5544018  14.2042384   0.7838223  10.8909096
  14.4549451  -0.1398303  10.8753266  14.6718726   1.1714480  10.1511158
   8.0426400  59.2109881   2.1360029   7.1155541  59.4474302   2.1069874
   8.0490677  58.3041559   2.4423470  71.5447561  61.8864201  17.9565300
  70.6478445  62.0262908  17.6528610  71.5178816  62.0999120  18.8892330
  22.0506525  28.6440206  57.8274202  21.3683558  29.0930629  57.3283529
  22.0875406  29.1148496  58.6600018  59.4282818  60.2573776  55.8838844
  58.5496759  60.5016565  56.1747646  60.0155497  60.7733679  56.4362431
   8.5286324  77.2562407  48.1786408   9.2625849  77.8558181  48.3130039
   8.7392323  76.4949225  48.7192692  74.7207546  54.0644598  69.4820929
  75.4626560  54.2871237  70.0444412  75.0396013  53.3434153  68.9392662
  38.4187398  17.5059531   6.6608442  38.0225215  18.3517048   6.8704809
  38.5908398  17.1043942   7.5125279  56.4775555  77.7214359   8.9836611
  56.6719644  77.1213387   9.7036041  56.7216126  77.2366355   8.1952204
  65.4865217  37.2500849  53.0484962  65.8689499  36.4515281  52.6847839
  64.7116566  36.9497585  53.5234880  30.0938559  42.8817320  70.6094599
  30.8024001  42.3993635  71.0355091  29.3999338  42.2331285  70.4910469
  33.9328218  24.0388703  69.1413689  33.7580252  24.8148179  68.6088419
  34.0999579  24.3831801  70.0187206  73.4618513  57.2140823  18.7225880
  73.4137194  58.1698154  18.7004437  72.9312031  56.9302403  17.9782166
  20.0743096  77.8134416  15.5535664  19.9584477  77.9392313  16.4953674
  20.9940856  78.0257629  15.3949417  32.2764239  12.3359225  18.9102711
  32.1903405  12.7788375  19.7544636  33.1812462  12.5002835  18.6447300
  61.6518037  57.3988746   3.3050741  61.0439865  57.8109120   3.9190878
  62.4058954  57.9880117   3.2828345  66.4869563  58.4300648  26.3650097
  66.8345777  57.6734279  26.8371262  66.3726394  59.1006981  27.0383705
  71.2331335  67.8637312   9.6426739  70.9922020  67.9172538   8.7178435
  70.8119432  68.6236952  10.0442757  63.0846167  56.7662859  53.7412310
  63.2720947  56.9559765  54.6605253  63.0999041  55.8108091  53.6858797
  81.5025997  66.2728739  63.1144524  81.5565395  66.2800932  64.0701056
  82.2890854  66.7364025  62.8266621  29.6393904  35.4947589  21.8761696
  28.7749467  35.2306674  22.1911682  29.9044737  34.7901080  21.2850441
  54.7197580  36.1999154  65.9509230  54.1893339  35.9285879  66.7001009
  54.0998793  36.6298580  65.3617430  38.4943461  54.1835213  56.3642168
  38.3961487  55.0005198  55.8752346  39.4114614  53.9390039  56.2403536
  37.9441390   3.0999348  28.8140930  37.8824744   2.2140334  29.1713108
  37.2627911   3.5912106  29.2730583  78.3828537  74.0840887  22.3716892
  77.6791803  74.7313546  22.4177803  78.2501928  73.5308622  23.1414856
  60.4035473  26.5832090  23.1719804  59.8867702  27.2342563  23.6466479
  61.3037682  26.9033074  23.2300329  82.2714369  68.7199591  16.6149296
  81.5600674  69.3073128  16.3595738  82.2969715  68.0595301  15.9225334
  40.0578389   6.2968037  47.9074825  39.3455062   6.9280741  47.8059448
  40.4302582   6.2126753  47.0297302  82.6352406  24.0245461  41.1106539
  83.0570698  23.6036777  40.3615475  82.8079414  24.9581981  40.9893942
  72.4462494  44.9241994  28.5777630  73.3763739  45.1480458  28.5462727
  72.0897325  45.4789994  29.2715325  31.8413624  19.0870497  20.6301655
  32.1307740  19.1136000  21.5421738  31.6200719  18.1686757  20.4757370
  84.4425480  71.8440364  12.7522625  83.5794632  72.2545479  12.8051533
  84.9814550  72.3390769  13.3693089  86.2611286  48.3900492  34.1860642
  86.4254515  47.6378469  33.6173691  85.7958500  49.0142356  33.6291660
  75.6090157  30.5979489  25.3404869  75.8073465  31.4037435  24.8634209
  75.8337728  30.7963132  26.2495388  47.5132990  45.7453203  70.7107449
  46.8539333  45.0954247  70.9538555  47.7206039  45.5462217  69.7977209
   0.7105574  30.5759690  12.2477020   1.4918956  30.8657191  11.7767586
   0.1885996  31.3707802  12.3575463  69.5345363  14.8663590  23.8806690
  68.7886616  14.3573210  23.5632099  70.1216372  14.2160485  24.2662014
  82.7730688   4.0557978  21.4450039  83.3978423   3.3730052  21.2007107
  82.5294527   4.4656203  20.6149830  79.8377585  32.2581887  56.3513708
  80.0208771  32.1335006  55.4201603  78.9157402  32.5134754  56.3820744
  20.6062016  22.5058243   3.0727305  21.1626897  23.2835601   3.1137432
  21.1979088  21.8016408   2.8076996  57.1036673  30.0024033  69.2156315
  56.7643070  30.5157900  69.9487782  56.4593029  29.3053126  69.0927982
  21.3235793  11.7338870   3.3167566  21.7750773  11.8200514   2.4771370
  21.9099269  11.1971829   3.8500323  49.8173714  53.8812399  49.9185085
  48.8617706  53.8382912  49.8836374  50.0526762  53.3603573  50.6863308
  21.9778666  26.6776726  22.6220383  22.8303227  26.9782517  22.3070778
  22.1292958  26.4455149  23.5382237  46.7495791  69.8970436  22.2154679
  46.2100260  69.9752425  23.0022301  46.8692998  70.7984661  21.9165768
  72.8443810  29.2903969   1.4977421  73.7094971  29.5512316   1.8136086
  72.6190456  28.5226319   2.0230879  69.1571419  62.6533197   6.9252791
  68.9832489  63.0137013   6.0557284  69.0213530  61.7110609   6.8255772
  57.3768322  70.0130604  21.0452618  57.6909248  70.1679896  20.1544346
  57.2451012  69.0660952  21.0914768  16.0053818  48.1319724  17.9807343
  16.3490622  48.3200805  18.8540806  16.5999262  47.4706023  17.6267113
  58.2768886  69.8392438  33.7910237  58.2653419  69.9475406  34.7420086
  57.7090256  69.0859459  33.6288323  43.5121998  24.7977517  36.2492432
  44.2445359  25.1767132  36.7353596  43.9239154  24.3251870  35.5257763
  50.3274632  72.9650927  57.2596836  51.1812115  73.3552742  57.4470377
  50.0994730  72.4920893  58.0600071  65.0638382  66.9908117  44.1821922
  65.4993908  66.1687683  44.4075169  65.6314890  67.3897098  43.5227360
  79.5837681  75.0739311  25.0903382  79.4799082  74.2425393  25.5531849
  80.2270452  75.5577277  25.6083740  59.4382558   3.9816163  14.9152245
  58.6865029   3.4614823  15.1990570  59.0944943   4.8704837  14.8259033
  55.1471186  34.7873068  62.2023582  55.0725842  34.3055749  63.0261326
  54.3301821  35.2821803  62.1395302  57.4983692  73.5986137  55.2575302
  56.5705347  73.4600544  55.4476690  57.7103615  72.9340982  54.6020079
  76.5184137  16.5245793   2.7197947  75.8604714  17.2155163   2.7969088
  76.0209569  15.7104514   2.7970137   0.8539931  33.4869647  56.4756155
   0.3605088  34.1346264  56.9788408   1.6505390  33.9464259  56.2098265
  84.6329348  77.8282116  33.9136376  84.7863142  77.0308064  34.4204487
  84.8220055  78.5403966  34.5246090  24.3794665  31.7909882   5.9420504
  24.9594531  32.1119712   6.6325726  24.6496424  30.8829663   5.8051981
  27.8708110  40.7093690  29.9777950  28.6887345  41.0910962  29.6591629
  27.2516188  40.8353779  29.2588009  53.0695233  46.7668889   8.5788454
  52.2474370  46.7440293   8.0890764  53.4419331  47.6263592   8.3817162
  69.5641510  57.3176919  16.2941803  69.5738070  57.9317378  17.0284046
  68.6514728  57.3032437  16.0060181   5.6795010  30.2694819  23.1370796
   5.7756290  30.9999821  23.7481178   6.1835537  30.5332253  22.3672737
  48.6349440  21.7517996  40.2098083  48.3090925  21.8454409  39.3146634
  48.0312252  22.2719455  40.7400990  80.5069622  16.0133145  11.9068779
  80.9867915  16.4964745  12.5795998  80.8444389  15.1196168  11.9672360
  32.0845723  42.8784990  64.4880486  31.9140053  43.8052607  64.3199635
  32.4107361  42.8543043  65.3876400  21.5728507  34.2536852  41.2677540
  21.3100466  33.5414002  40.6848206  22.1743474  33.8444970  41.8898548
  61.3663308  71.4576696   6.1551251  61.4487831  72.1343206   6.8271174
  62.2501151  71.1014484   6.0642113  12.6981148   7.3050664  17.8377213
  12.4202523   7.7769683  18.6227955  13.6531481   7.2817490  17.8977360
  81.1283104  65.2723645   1.1761250  81.7743961  65.3317569   1.8798889
  80.9537117  64.3351959   1.0897412  38.3174929  15.5962012  30.3356232
  37.9074988  16.1890528  29.7058167  38.4658942  16.1365388  31.1116661
  25.4085478  29.2426608   2.5714125  25.4958901  29.1270945   1.6252388
  24.5518479  29.6544287   2.6843418  39.2834306  40.7607603  57.0169878
  38.7381577  40.0038767  56.8024254  39.6435976  41.0425663  56.1760950
   4.4927034  13.7812159  11.0382141   5.3859219  13.9747021  11.3227429
   3.9983687  14.5743964  11.2449326  14.4877848  -0.0114801  25.3594364
  14.7705731  -0.6779697  25.9855808  14.6232590   0.8188651  25.8159603
   4.0077290  16.2586615   9.2541756   4.1002712  15.7906506   8.4243406
   3.0959520  16.1168931   9.5087303  45.6831631  22.4202893  18.3028092
  45.6366572  23.3608649  18.4742512  45.7696662  22.0228789  19.1692986
  55.4239988  41.4265823  54.2055511  54.9274635  41.7317629  53.4462404
  55.8058023  42.2216892  54.5773792  76.1617231  79.6652126  43.8182926
  76.2557125  79.6234846  44.7699547  76.9590235  80.1013660  43.5177708
   9.8378000  50.5981991  27.4282040  10.4217848  50.8004830  28.1591477
  10.3686247  50.7545731  26.6471733   9.5106063  15.3475783  17.4304833
   9.5820675  14.4410679  17.1315540  10.3495297  15.7441018  17.1955170
  67.1226358  56.9963884  29.0376210  66.7564583  56.7708158  29.8927593
  67.8091717  57.6345015  29.2318249  34.7757053  17.2463119  69.7011471
  35.5026317  17.5646579  70.2363729  34.6498966  17.9262400  69.0392542
  35.2862215  30.9763885  69.9128056  36.0134697  31.3206053  70.4313135
  35.7060051  30.5414295  69.1706276  21.8981967  26.5840075  29.2371239
  21.8877253  27.4032424  29.7320713  22.0888075  25.9115098  29.8910774
  11.4697871  36.3348935  35.6116547  12.3242745  35.9934542  35.3480400
  11.6235051  37.2655938  35.7741417  23.6891802  76.6607077  68.5743427
  23.1146439  76.5840800  67.8125906  23.2262142  77.2551660  69.1646910
  12.6461014  22.4909184   4.3315043  11.7817292  22.1692536   4.5876755
  12.4881158  23.3836815   4.0245070  84.9411003  80.6957887  29.5305027
  85.5123655  80.5642866  28.7738003  85.5315964  80.9726118  30.2311577
  82.9659876  11.6557143  41.8021359  82.6146754  10.9345410  42.3243679
  82.2730097  12.3159955  41.8087734  17.4786484  73.3089638  59.1257954
  18.0046451  72.8993940  58.4389114  18.0933607  73.4508896  59.8456669
  67.1382896  59.9796318  16.4978851  66.8986408  59.1403090  16.8907417
  66.3192121  60.4742430  16.4713730  63.1587569  75.9088014   2.4528517
  63.0897514  75.9129809   3.4075512  62.6598422  76.6763710   2.1732916
  24.8578398  76.3178180  11.0033573  24.4487612  76.0887145  10.1688542
  24.4076483  75.7725023  11.6484799  33.0623637  81.6706346   7.5826325
  33.3412696  80.7686471   7.7403082  33.6438797  82.2000192   8.1283631
  10.5397925  21.0216019   5.1489939  10.6720099  20.1821683   4.7084250
   9.5962915  21.0644648   5.3045572  61.4377205  63.5614108   1.2414087
  60.9631984  63.9349030   0.4987349  61.1286871  64.0595745   1.9980873
  60.7710330  77.2953914  50.1843895  60.0492994  77.7984689  49.8072304
  60.3910701  76.8714689  50.9538998  19.2578683   3.3041213  17.9690136
  18.5490260   3.9413283  17.8810181  19.2572102   3.0718348  18.8975968
   1.5476840  72.8646849  17.2560658   2.1662133  72.1351193  17.2187962
   1.8379109  73.4602688  16.5652050  12.5329297  54.1123913   1.3880028
  13.0425160  54.8354219   1.0222449  12.9220908  53.9563154   2.2484841
   5.5102961  71.9132112  18.8904823   4.8811476  71.6310714  18.2265534
   6.0601514  71.1443828  19.0414585  66.3012409  53.4080744  49.7743368
  66.1024570  53.5587883  50.6984568  65.9751129  52.5251770  49.6000862
  68.8877201  32.2431540  57.0661497  69.3552351  32.5247812  56.2797976
  67.9765129  32.1582818  56.7855597  53.0203581  28.4341931  63.6059475
  52.4305487  28.1078553  64.2855501  53.6032486  27.6978350  63.4208870
  71.0225030   6.5095780   5.8507361  71.1807486   6.1118195   4.9945940
  71.5411457   5.9830401   6.4590134  41.9608307  72.4156094  36.7691946
  42.8937435  72.4004269  36.9828987  41.6756010  73.2985640  37.0042872
  64.4313328  64.3147515  14.7958054  64.1962211  65.1085709  14.3153824
  65.1178638  64.5954679  15.4008640  19.0595627  78.6882210  57.0857000
  19.1374004  78.6992311  56.1317348  19.5141733  79.4803333  57.3722649
  85.7303278  74.1768311   1.7543472  85.9673922  73.7050627   0.9559311
  86.4243690  74.8269342   1.8634333  82.6268705   5.2755759  61.6607346
  83.3767160   4.7345135  61.4133133  82.2014746   4.7873948  62.3656811
  13.6711535  12.5791714   9.0189041  14.5970091  12.8082345   8.9379706
  13.2089743  13.4115956   8.9204325  23.2588053  44.4798708  70.4251814
  23.8715839  43.9572430  70.9424829  23.5266733  45.3857136  70.5798578
  79.5122274  17.9549716  19.4449391  78.7641963  17.7423451  20.0030293
  79.1239604  18.3497307  18.6641373  31.7884541  33.4692073  48.5020399
  31.5014434  33.3898330  47.5923395  31.4246154  32.6976013  48.9361763
  50.0412607  51.8559694  66.0725260  50.5406952  52.4360418  66.6472578
  49.1742277  52.2582531  66.0210419  43.8619137  28.7122560  57.8888178
  44.2967129  28.6466360  57.0385933  44.2337465  27.9962397  58.4038830
  14.4046816   5.6032298  14.4396843  14.3261609   6.4939520  14.7812714
  13.6393294   5.1451705  14.7870316  61.8126838  73.1916045  53.7581982
  61.5855066  73.9793466  53.2641472  62.7659266  73.2256483  53.8381924
  23.9780459   1.0214398  11.7450585  24.8094878   1.1368296  12.2050728
  23.8075671   1.8724272  11.3413395  42.9749999  32.3807023   3.1569733
  43.4409985  31.9906924   2.4173989  42.0588622  32.3987124   2.8802122
  41.5265322  38.4359217  65.8263445  40.7131577  38.8869047  66.0527611
  41.6517925  37.7998948  66.5306282  79.9125242  37.1462870  26.4643788
  80.2346325  37.8414321  27.0381832  79.7766638  36.3988042  27.0466542
  19.9394784  28.7744115  33.2600083  19.0833506  28.7791894  33.6880840
  20.5103478  29.2533515  33.8608040  26.6138649  66.9236898  65.1259089
  26.7038655  67.1209478  66.0582304  25.6707883  66.9533205  64.9647760
  29.9167189  10.4563210   7.3335041  29.7896800   9.6090768   6.9065680
  29.6330437  11.0977194   6.6820683   8.4534058  19.3536828   0.6269898
   9.1540680  18.7627528   0.9028639   8.7938652  20.2297995   0.8079256
  38.3112940  28.7461159   3.1782068  39.0589938  29.3290064   3.3101715
  37.5728736  29.2108796   3.5718598  24.1216850  28.2790732  47.2338676
  24.0356350  28.7836981  48.0426788  24.9912119  27.8828549  47.2901249
  26.4442968  26.5882707  47.4625921  26.9702244  26.4228439  48.2450628
  25.7813764  25.8978152  47.4691916  30.3707170  38.9947104  47.5111771
  29.8036218  39.7400093  47.3132753  31.2539172  39.3633986  47.5272703
  19.4493804  25.1904986   8.1264843  19.5426974  26.0455535   7.7064909
  19.7729382  24.5674584   7.4758209   6.6243562  75.6967900   8.3454432
   6.3915953  74.7910378   8.1413187   7.0206627  76.0295365   7.5401749
  33.0216679  45.1517747  27.1243061  33.3964762  44.3745778  27.5386871
  32.1631417  45.2519963  27.5355496  34.8611149  16.8843434  36.8409695
  35.6249127  16.5955517  36.3415302  35.1314196  17.7145312  37.2333397
  45.5390391  20.1262210   1.0811962  45.0321564  20.6670544   1.6868414
  45.1105342  19.2707131   1.1079897  85.6521408  81.1928676   5.0139155
  84.9663012  81.0605262   4.3594422  85.9404079  80.3087782   5.2409043
  11.4878258  50.6848500  13.4359135  11.4335189  50.5712578  12.4870266
  10.6404385  51.0560773  13.6815800  36.1987576  40.8694050   3.0706610
  35.5023989  40.8910630   2.4142660  36.8989739  41.4028618   2.6946844
  20.4541707  73.5339117  54.8043108  20.6666040  73.8306856  55.6892014
  20.2362919  72.6076460  54.9081802  18.7552628  21.0872815  30.9558262
  18.7207636  20.5576728  31.7524208  19.5262322  20.7663319  30.4880299
  47.3599610  37.0330641  19.8799957  46.7116770  37.5538991  20.3540100
  47.9012904  36.6423772  20.5659737   9.5446024  60.0976250  28.9656319
  10.4141388  60.4976246  28.9539303   9.6305093  59.3215249  28.4119858
  30.6460461   4.4404338   8.1579031  30.0770030   4.3490527   8.9221491
  31.2774548   5.1147196   8.4086813  59.2715344  10.8827851   2.4599184
  59.8553548  11.6294024   2.5938906  59.7603593  10.2972434   1.8816294
  18.2981238  14.2730401  26.3181557  17.5285182  14.5819543  25.8401360
  18.2423911  13.3186457  26.2707295  85.8133698  40.7768679  68.2888842
  86.1164665  40.0679541  67.7216053  85.6982327  40.3655624  69.1455078
  59.0502152  10.1274798  11.2472881  59.0882287  10.7550881  10.5255570
  58.1156048  10.0258038  11.4272942  21.0638604  61.2115834   9.8742928
  21.3324723  62.1277402   9.9430527  21.6356883  60.8442662   9.2002548
  68.9036069  23.9988301   5.3328051  68.8972077  24.8586915   5.7533135
  68.5158238  24.1507933   4.4709696  22.8672799  20.2347109  19.6434750
  23.6703595  20.6900046  19.8964562  22.2758087  20.3623221  20.3851666
  31.6316971  64.6108697  10.2563061  30.9201226  64.2175076  10.7614388
  32.3634753  64.6598027  10.8713974  45.6601891  61.4924214  17.4210800
  45.0355229  61.3728402  18.1364311  45.7510314  62.4417184  17.3386063
  16.9594130  26.2846158  11.5977158  16.3294253  26.9760487  11.3945736
  17.0321355  25.7810900  10.7869114  63.5057942  80.1969694  10.8156933
  62.9383223  80.8620595  11.2053932  64.1690533  80.6969403  10.3399338
  80.3640215   6.8828248  60.3418350  80.6502287   7.6683950  59.8757982
  81.1540167   6.5606069  60.7757902  14.6967023  31.9228129   8.3747210
  15.1692479  31.5376608   7.6367535  15.3840583  32.2067778   8.9773239
   3.0680833  30.4327271  14.8659958   3.9134583  30.5011962  15.3097119
   3.2720503  30.0271628  14.0232910  78.8903865  35.3842614  22.1002735
  79.3003210  34.5438788  21.8954720  78.6044654  35.7242272  21.2523903
  44.7683191  51.6904306  65.7832813  44.5906210  50.8657598  65.3309822
  44.0906048  52.2878885  65.4670811  58.2439566  65.6617832  52.6548338
  58.8852358  65.4352903  53.3284044  58.5029697  65.1428318  51.8933678
  63.0245671  50.6446812  13.2072319  63.1530556  51.1434434  14.0140595
  62.8428540  49.7527669  13.5033859  21.1351952  15.7373116  23.9787831
  21.5232787  14.8664734  24.0640129  20.9322962  15.9980748  24.8771538
  37.1666751   8.0748532  10.7716145  36.8312726   8.4864113  11.5680756
  36.9397244   8.6871932  10.0717796  11.2976966   0.5509446  26.1945118
  11.9469199  -0.1149204  26.4211716  10.5625448   0.3787348  26.7828430
  17.6656907   5.1783418  50.7924509  18.0465453   5.6078385  51.5584183
  16.8561165   4.7838925  51.1168575  28.3978495  12.3410485  19.1843666
  29.0310988  12.9698680  18.8382210  28.3033309  12.5793193  20.1066078
  23.6063037   2.0860980  38.0270924  23.0729661   1.4186452  37.5954785
  23.7555298   1.7410824  38.9073910  24.8962975  15.6625283  67.1624565
  24.0220404  16.0019445  67.3540449  24.8568058  15.4053056  66.2413120
   7.4640641  28.9274523   0.5890192   6.7169199  28.5908673   0.0943245
   8.2130465  28.4311745   0.2589144  30.7381091  16.3614104  14.3123211
  30.8711133  17.0406506  14.9735130  31.2132487  15.6021617  14.6499695
   2.2846644  70.3004430   7.5258221   2.6963704  69.5105599   7.8762688
   2.1553509  70.1109813   6.5965094  64.5280790  17.8425586  52.5044584
  65.0221157  18.0772603  51.7189169  63.7485123  18.3970261  52.4716902
  27.3797307  11.9524787  39.7277130  27.5398621  12.8677867  39.9575104
  27.4034581  11.9380639  38.7709202  44.3007598  34.3475745  18.6267819
  45.2313647  34.4561789  18.4308018  43.9647994  33.8147566  17.9060425
  12.9753050  39.3775437  23.5874619  13.2278189  39.2706177  22.6703800
  13.2198033  40.2783082  23.7997498  51.1356688  61.2209892  51.1849070
  51.3837099  61.8535805  50.5107117  50.4271030  61.6487980  51.6656828
  53.6211061  21.3131332  61.4899540  53.9243221  21.1099553  60.6050777
  54.2146683  20.8286190  62.0636845  61.9377136  65.4192114  63.8066626
  61.7168236  64.5668602  64.1820765  61.7578650  66.0441494  64.5090437
  45.5984025  29.5771276  12.6371540  46.2452166  29.2825650  13.2783188
  45.7286946  29.0013860  11.8836464  23.0344872  55.7648216  43.2618393
  23.0245630  55.4064702  44.1493668  23.9626108  55.8097993  43.0320610
  21.1143637  42.9789209  39.9497628  21.6453505  43.3364439  39.2381001
  21.6549182  42.2845221  40.3263807  63.6254708  69.5801114   6.9128527
  64.3265764  69.4678973   6.2709107  63.8718574  70.3652357   7.4018397
  59.5940781  15.9576643  57.1889400  60.3484869  16.5278411  57.3372412
  58.9665270  16.5078211  56.7201710  69.2131273  21.5901540   6.5032400
  68.5843436  21.5579926   7.2242321  69.0819780  22.4526440   6.1093582
  41.3234758  25.5253816  62.1302986  41.0749769  25.8304048  61.2576914
  40.7235479  24.8017097  62.3109102  79.7775690  29.5624016   5.2150358
  78.8731997  29.4927369   5.5208172  80.3021280  29.5579992   6.0156931
   2.1452031   9.7309230   2.4965491   2.2774109   9.8860142   3.4318031
   1.4832744  10.3724406   2.2386040  18.2788570  69.9927271  60.8526993
  17.5078400  69.4697810  60.6329346  17.9230793  70.7958151  61.2330961
  27.4796033  34.1510272  61.5697527  26.9836903  33.4106874  61.9193220
  26.9495034  34.4711399  60.8398533   2.0527768   1.4288023  56.1943340
   1.5909851   0.5946394  56.2789059   2.9800647   1.1935209  56.2261391
  28.2340240  19.2983115  41.3007021  28.2060719  20.2084422  41.0055542
  28.6840701  19.3339491  42.1447515  13.5949619  69.3375517  17.6572752
  13.1142672  70.1022149  17.3403263  13.9260824  69.6016837  18.5156596
  69.1755049  66.0099124  28.2825817  69.3396227  66.7972754  28.8015713
  69.8392050  66.0347413  27.5932945  71.6337721  47.4483721  16.9826092
  71.2670128  48.2778488  16.6765274  72.1517269  47.1284293  16.2439789
  59.2290585  49.1012804   0.6222738  60.1097075  49.0673964   0.2487196
  58.7400572  49.6738182   0.0312533  70.9743738  20.2827954  58.7578821
  70.3148556  20.7475591  58.2428408  70.7833815  19.3563282  58.6115456
  48.9689541  54.9195433  59.0392971  48.4724760  55.4214287  59.6857119
  49.0609026  55.5133533  58.2942057  48.1434278  65.5499338   2.1630539
  48.0000488  65.9370230   3.0266680  48.1567125  64.6062468   2.3227705
  29.5677750  25.5554305  17.1999325  29.7313361  26.4789675  17.0087303
  29.6642050  25.1152705  16.3554253  76.5755312  74.9152707   0.6111159
  76.4236013  74.6832393  -0.3050218  77.3313276  75.5021642   0.5873789
  50.8827321  35.2739607   5.1553597  51.1580507  34.6236383   5.8015122
  49.9716680  35.0510048   4.9643482  40.1873259  52.8092240   5.6773724
  40.9270553  52.2785746   5.3816618  39.4789819  52.5914370   5.0715222
   4.0250397  26.8781638  63.9065218   4.0941656  26.4910603  63.0338240
   3.7381202  27.7774191  63.7476158  26.8784690  20.0677967  57.3172474
  26.0401559  20.5287170  57.2853422  26.9879985  19.7086596  56.4367628
  12.0587528   1.8244931  51.8704987  12.7675498   1.2952565  52.2362137
  11.8240154   1.3802937  51.0557508  85.4120247  71.1189316  10.2268089
  85.1781551  71.4652823  11.0879578  85.3104774  70.1711534  10.3141941
  71.5309660  70.4802536  27.3046841  70.6356613  70.1523160  27.3890843
  71.8527214  70.0915860  26.4912666  80.7585852  35.0901644   2.9448666
  80.2785246  34.4007109   3.4035887  81.4419739  35.3561579   3.5600580
  81.1064171   8.9016759  32.1416950  81.9011050   8.5062635  32.4999571
  81.1444133   8.7090200  31.2048531   8.7319072  75.4003496  50.0705051
   9.5435937  75.3922547  50.5777836   8.1154926  74.8911072  50.5967569
  42.3767710  12.7032530  42.4116135  42.7170610  13.3811069  41.8277073
  41.7379141  12.2280693  41.8802977  55.2536647  33.2757752   3.9290728
  55.4096167  34.1454636   3.5609020  56.1017887  33.0107539   4.2849983
  45.4142094  22.8524899  53.1376982  45.3653431  22.0455384  53.6502171
  46.3393211  22.9331303  52.9055452  17.0701988  74.1218127  41.7256021
  17.9159220  73.6746193  41.6939068  17.1714409  74.8678429  41.1344862
  40.7630352  47.5210337   6.9549193  40.1644282  48.2296853   6.7188801
  40.2021651  46.7491196   7.0311083  44.1783524   5.5972886  66.0222292
  44.1091490   6.1306500  66.8140459  43.5393381   4.8960254  66.1492109
  67.2354102   5.8751845  63.8835239  67.1757089   6.3894081  64.6886587
  66.7039561   5.0979358  64.0557814   1.5943654  62.5252236  56.3579893
   2.4206718  62.5362850  55.8749485   1.1089476  63.2775534  56.0194635
  57.7703725  63.9206577  68.6686087  57.8287862  63.5502315  69.5492887
  56.8309964  64.0118040  68.5089302  32.2487569   9.3421429  54.3331528
  32.1974921   9.6735036  53.4366035  31.9851780  10.0836885  54.8780107
  49.9962282  36.9192362  62.2614193  49.6809578  37.8176570  62.1630669
  50.8165169  37.0050907  62.7472115  41.4634323  29.9003863  55.9730196
  40.6484318  30.2957463  55.6636715  41.7763758  30.4973817  56.6526461
  49.6988360  57.7779327   9.4483627  48.9433472  58.3646856   9.4828858
  49.8837392  57.6802479   8.5142864  55.1230669  51.6705275  52.7564335
  54.9165678  51.7726326  53.6854982  54.3424559  51.2632465  52.3809290
  29.2618990  25.0513721  53.7426710  29.2218328  25.3125501  54.6626759
  28.6539531  24.3150330  53.6760378  33.4101780  80.3377678  46.1867523
  32.7211531  79.6778692  46.1092234  33.0430229  80.9997116  46.7726374
  34.9060307  68.5430645  22.1520962  34.6945946  69.1674732  21.4580979
  34.0637420  68.3463763  22.5620903  63.2025623  24.0811849  60.8091879
  63.8818693  24.5344496  60.3098679  62.3922682  24.5354462  60.5783224
   9.5083064  11.9306242  66.8886948   9.6458036  12.0533609  65.9494066
  10.2030981  11.3288558  67.1558475  13.0633259  38.9213467  66.3613796
  12.6423705  38.0950451  66.1242056  12.3598874  39.4483805  66.7403793
  23.9691043  38.7215543  32.6199794  23.9454603  38.1190705  31.8765521
  24.8614073  38.6490369  32.9587531  63.7120311  76.0414337  12.0345654
  64.3599503  76.5206240  11.5180267  63.5129635  76.6230486  12.7682652
   6.2981260   9.0567017  48.3141422   5.4501885   8.7318885  48.0112696
   6.4887834   8.5367984  49.0948963  85.2976982  58.5241173  35.0811066
  84.7486155  59.3077622  35.0557198  85.8308308  58.6306273  35.8689179
  77.3165981  64.7546838  21.6414417  77.9144852  64.4772719  22.3355641
  76.5743677  65.1421450  22.1053280  32.4801828  71.1007379   1.0061707
  32.6986240  71.7614697   1.6634001  32.4000157  71.5929555   0.1891483
  56.6680908   0.6559784  62.6149130  57.5725985   0.4449581  62.3834801
  56.6857624   0.7769562  63.5642719   5.9805615  69.1799010  41.1365652
   5.9551676  68.4728504  41.7812872   6.1121424  68.7356640  40.2989674
  37.0445450  77.5107787  56.9486761  37.5473841  78.1468029  57.4574566
  36.7721041  77.9911313  56.1668396  37.1584487  39.1128254  43.4057331
  36.3810635  39.4160891  42.9367590  37.1564841  39.6134496  44.2215776
  70.6221239  47.3117809  29.5847668  69.8679821  46.7224102  29.5725979
  70.3663580  48.0157338  30.1808132  37.2983837  44.5699930  47.1568727
  37.6282191  44.7477388  48.0376911  37.7894878  43.8008785  46.8678904
  44.1059160  21.1109805  57.9071474  43.5199594  21.4384198  57.2247505
  43.5456657  20.5719543  58.4655380  29.0194893  26.0899806  41.6741991
  29.8204970  26.4643669  41.3075113  29.2919898  25.7147264  42.5115490
  45.7445955   1.8081585  49.0434074  46.4850998   1.8344799  48.4374428
  45.0008678   2.1175848  48.5263348  52.8044462  34.9647331  52.0139408
  52.4258900  34.6696877  52.8421211  52.3245764  35.7656765  51.8031168
  54.4804430  42.7191925  59.2937422  54.5800877  41.8451691  59.6710777
  53.6787844  42.6654911  58.7734652  30.6076169  28.8018417  57.0934296
  30.0157118  29.5537424  57.1163654  31.1919785  28.9341760  57.8399134
   7.2382887  67.6983429  55.2377748   6.8344481  68.0505551  54.4446230
   7.0085152  66.7691530  55.2311945  22.5739598  30.9271240   7.9707539
  22.9644442  31.1818123   7.1347588  22.1640229  30.0800967   7.7954638
  35.0693679  29.8887801  58.4422159  34.8582268  30.6532955  58.9780998
  35.0464153  30.2135110  57.5420761  48.7427664  10.8827484  53.4850073
  48.0983543  11.5886319  53.5368967  48.8975143  10.6322801  54.3958044
  36.7224249   5.7633088  16.1305679  36.3226924   6.3513348  16.7714085
  37.4144492   6.2857363  15.7251038  55.5730724  22.3159599  43.1159592
  55.4231644  21.3894391  42.9280233  55.9285641  22.6711321  42.3012733
  47.1777868  11.7837918  49.8645926  46.3587713  11.8299592  49.3713284
  47.0830631  11.0055864  50.4138231  49.2053843   7.5511628  30.5764747
  48.5784531   8.1549507  30.1781917  48.7902546   6.6918194  30.5028033
  76.9717693   5.9095120  35.1262498  76.5556526   5.0475824  35.1386523
  77.6320028   5.8667076  35.8179832  37.6922464  19.1093469  58.5890818
  38.2308269  19.7863245  58.1793690  37.0008063  18.9344227  57.9506874
  31.2736559  15.1662254  22.0143270  30.7510877  15.0355387  22.8055763
  31.4181280  14.2832494  21.6741586  72.0289127  58.8451253  11.7835774
  71.2357895  59.1190873  11.3229908  72.7193539  58.8958131  11.1225571
  70.3140251  73.2646893   0.5574717  70.3875248  73.8555358   1.3069595
  69.4236795  73.3992551   0.2328076  39.5153460   2.0273516  13.1361164
  38.7195477   2.5194667  12.9342331  39.9860892   2.5790093  13.7608589
  45.6020880  46.4809132  67.2780085  45.1258183  45.7233906  66.9380665
  44.9178982  47.0771742  67.5822878  77.4467794  69.3755959   0.4887261
  76.7583935  69.3178605   1.1513151  76.9822685  69.5847939  -0.3216444
  32.2704157  22.9964755  30.3812946  32.8717074  22.3185322  30.0729527
  31.4268002  22.7624295  29.9942936  42.4880791  15.0718999  41.0522795
  42.2255039  15.5297589  41.8508148  41.7457533  15.1818299  40.4580545
  52.2857428   5.5820656  65.7192278  52.7555943   6.3424534  65.3767586
  51.9756222   5.1211214  64.9397516  42.8145552  48.1889963  55.7966280
  43.4432936  47.9515123  56.4781857  42.3097038  47.3895645  55.6474209
   2.8141768  68.7565161  23.4754753   2.7843602  67.9067672  23.0358505
   1.9391377  68.8641656  23.8482356  41.8841855  64.2549537   5.1569142
  42.2548322  63.6876987   5.8329882  42.5812678  64.8809575   4.9608864
  53.0057240  35.0819635  55.2397156  52.6727247  34.2421627  54.9233580
  53.5743904  34.8525906  55.9747267  14.3912999  66.8266724  30.7048287
  13.5678749  66.8349384  30.2168430  14.2060487  67.3329161  31.4957966
  40.0388392  75.9659154  53.8297272  40.7549341  76.2564398  53.2648945
  39.4687469  76.7309982  53.9063787  71.3395397  43.3145756   4.7134747
  71.0029594  42.9352953   5.5253185  70.6372396  43.1801765   4.0771259
  21.4639099  71.5596760  61.2151575  20.7953270  71.2555433  61.8289423
  21.5216835  70.8642376  60.5599785  42.7991915  19.5105588  60.2259970
  43.4071684  19.1810560  60.8878326  42.3228359  18.7345433  59.9308395
  39.0514517  12.8708601  46.7832994  38.1633115  13.2241380  46.8346119
  39.0123987  12.2263646  46.0766649  32.8875303  10.5093455  65.3195953
  32.2639155  10.3334332  64.6150446  33.7077975  10.7099521  64.8688698
  42.4773264  16.1655450  59.2413855  41.9101572  16.0180748  59.9982262
  41.9597721  16.7215455  58.6589527  13.7103581  45.4727221  26.2892914
  13.9926744  45.0082350  25.5013943  14.3970537  46.1213923  26.4439106
  10.2381968   4.7939795  69.8444986  11.1529589   4.5121998  69.8510265
  10.2745092   5.7199234  69.6046209  56.3921253  70.5149196  23.5660042
  56.5073268  70.5205868  22.6157822  57.2821347  70.5597542  23.9154400
  37.1574934  72.5640298  61.3305998  37.9994829  72.9765827  61.5231705
  37.2757633  72.1704710  60.4661036  17.0305574  29.3739414  44.6694326
  17.6787972  29.9224114  45.1112413  17.1820223  29.5280695  43.7369442
  69.8864738  23.1662308  13.8678612  69.8902027  22.7857517  14.7461857
  70.6362001  22.7638959  13.4293713  76.0359430  28.8512015  47.8293419
  75.2507210  29.3387890  47.5805044  75.9543657  28.0152965  47.3701668
   6.5072054   7.2879714  50.5019999   7.1889794   6.6163915  50.4820919
   6.5143377   7.6098686  51.4034224  43.1095457   3.9222544  61.6153145
  43.1061506   4.7639728  62.0710897  42.1860838   3.7407055  61.4407015
  51.9849348  33.3916593  68.4441662  51.2601852  33.8812995  68.0552912
  52.6549625  34.0528965  68.6175489  16.4309454   4.5797688  47.3414469
  15.6815898   4.4277871  47.9172945  16.0425413   4.8471910  46.5084648
  82.7825447  33.5288477  63.3743954  82.1049550  33.5678387  62.6994276
  83.6064204  33.5308814  62.8871012  77.6376971  10.0549052  15.1839508
  76.7278239   9.9787877  15.4712929  78.0159315   9.1924594  15.3552879
  69.7654907  11.3195418  10.6073059  69.2789356  11.5530871  11.3978447
  70.0302689  12.1594118  10.2321495  78.0475752  58.8269805  21.7838349
  77.1966831  58.5460912  21.4472069  77.8774492  59.6802054  22.1829476
  61.3541079  10.9548390  44.1787624  61.2980366  10.3029191  43.4801292
  60.6595087  10.7107282  44.7904539  70.9429161  44.7626670  31.3307347
  71.4158003  43.9619814  31.5577091  70.0842134  44.6580117  31.7404999
  79.5507772  80.9197860  46.3023376  80.0817187  80.1902969  45.9826851
  78.8748176  80.5066630  46.8395901  19.9491589  55.8802782  19.6860279
  19.3251317  55.5026101  19.0661968  20.4299967  56.5313958  19.1750778
  36.6720323  54.5746456   7.0277323  36.8412117  54.9681686   6.1717238
  36.2962977  53.7174128   6.8272127  38.1725883   0.9771901  58.2972002
  38.5445285   1.3155513  57.4827003  37.2396636   0.8736922  58.1096554
  58.8275115  73.0014466  20.8420719  59.2234294  72.1446584  21.0014309
  58.2463400  72.8614257  20.0944962   4.6474974  16.8987654  15.9512295
   4.3326323  17.6647495  15.4712738   3.8559239  16.3986586  16.1500611
  27.0901251  15.0715649  38.8272595  27.4096656  15.6983078  39.4763494
  26.1561513  14.9845004  39.0179086  62.3883526  67.0264648   6.3882651
  62.0394437  67.1620725   5.5072989  62.8692810  67.8311061   6.5818895
  30.2606869  70.0458002  66.6295147  30.9014702  70.2968788  65.9642410
  29.5892954  70.7265520  66.5843725  18.1619716  12.2344005  65.2851677
  17.9758739  12.7916908  64.5295048  19.0780318  12.4149084  65.4960823
  51.1753178   7.1314406  12.0768917  51.7964792   6.6134751  11.5649331
  51.6073656   7.9776973  12.1927226  45.2499704  43.7544869   1.7851080
  44.9716548  42.9773739   1.3004746  45.2358047  43.4823395   2.7026953
  79.9071114  48.5260378  29.6680130  80.8103458  48.2104992  29.6967854
  79.5860664  48.4152173  30.5629315  80.0402605   8.5230136  54.5829868
  80.5962180   8.1396842  55.2613688  79.8061036   9.3859875  54.9245691
  58.4387962  43.6499594  17.6757778  59.2394392  43.6312057  18.2000412
  58.5007565  42.8758642  17.1161617  20.4792030  65.0656069  51.9324541
  20.3748425  65.9454275  51.5701628  20.2392061  64.4806410  51.2138128
  35.2649252  53.4536766  13.5729756  34.9712269  53.6760293  12.6895012
  34.6817188  52.7463733  13.8483395  52.8313923  60.7941771  47.8107071
  52.8451967  59.8488998  47.9606676  53.4477329  61.1474800  48.4522152
   6.7345935  13.5786951  25.7441235   7.0838547  14.3211627  26.2370634
   7.1921468  12.8175616  26.1012697  40.3197010  67.6316930  54.6272278
  40.3193291  68.5330857  54.3051720  41.2421043  67.3759902  54.6223545
  75.6337540  46.2758820   6.4301838  76.0088579  45.3981863   6.3582195
  75.6317322  46.6097795   5.5331148  17.6948485  20.7483027   9.9612679
  18.6219821  20.9062741  10.1392998  17.5697980  21.0463212   9.0602793
  31.2266557  30.4176305  14.2106690  31.5636681  31.1905502  14.6637119
  30.3476368  30.2942978  14.5689167  80.1806633  65.1262687  13.3696808
  79.9818127  66.0382341  13.5818257  80.6756060  65.1730798  12.5517143
  37.2121440  75.6059073   7.7952112  37.8548507  75.3535675   8.4581484
  37.3855357  75.0201176   7.0583119  36.9668660  37.9152033  46.3493122
  37.7866015  38.1641839  46.7762531  37.1165261  37.0192502  46.0474838
  60.3301573  26.1720753  66.4831209  60.5980778  27.0827866  66.6058350
  59.9954319  25.9035230  67.3387337  41.8916273  17.0058155  36.2207246
  42.3124313  16.3953853  36.8261433  42.2879362  16.8120718  35.3712344
  84.3109600  58.8786255  14.6717896  83.7654869  59.2845415  15.3455319
  84.8922626  58.2919167  15.1556267   1.2073318  17.3179471  58.7086105
   1.3391043  18.2533348  58.5539532   0.2750602  17.2375107  58.9101791
   1.7676260  15.1013708  60.2967644   1.3307455  15.8990014  59.9981833
   1.9301277  15.2515590  61.2280369  72.2545406  16.2956402   9.3751206
  72.5348708  17.1515820   9.0510716  73.0128082  15.7276890   9.2383923
  37.0156860   4.7859648  58.0291557  36.9652534   4.8593849  57.0761061
  36.2873173   4.2110068  58.2639599  74.1461603  69.4360088   4.4330801
  74.9725143  69.0049957   4.6512474  74.3620913  70.0098275   3.6980023
  53.5634510  72.2248410  16.5658440  53.1480352  73.0365108  16.8571438
  52.9040710  71.5488123  16.7221703  49.1990034  15.4027890  18.6676182
  48.3569245  15.7002400  19.0120854  49.2549889  14.4844960  18.9318813
  69.6506568   2.8801892   2.6059212  69.3077942   3.5782168   2.0478596
  69.1801664   2.9820941   3.4332575  69.3027543   3.0376050  64.5593262
  68.6004400   3.3492255  63.9884663  69.6051442   2.2283441  64.1471529
  14.0818207  81.2621091  20.9156765  13.5535519  80.7689451  20.2880253
  13.7609999  82.1611379  20.8445801  71.9344656  79.5567583   1.4256395
  72.2139399  78.8066481   0.9007944  72.1258013  80.3174947   0.8770909
  62.5222969  12.4497724  29.4485450  62.6066303  12.4009454  28.4963202
  62.3072720  13.3659947  29.6232820  70.2620001  62.9619099  60.4845762
  70.5436582  63.8536681  60.2804470  70.9659941  62.6066757  61.0271931
  67.2920196  45.7213490   0.6996454  67.4591534  44.8019920   0.4920830
  66.8643562  46.0695993  -0.0826965  10.7637715  20.6860805  50.2299356
  11.6023731  21.1072659  50.0413084  10.7881415  19.8696923  49.7307920
  23.6895490  16.9406164  44.5955563  24.1379809  16.9262612  45.4410934
  22.7665830  17.0661330  44.8160410  60.6841104  60.0987683  33.4853233
  60.1753275  59.3737005  33.8481583  60.0322215  60.6671570  33.0751957
   9.6141571  23.6927104  65.3311157   8.7803429  23.9742279  65.7075882
   9.3676609  23.1363440  64.5922470  61.8876211  49.0541183   8.4462132
  61.6107981  49.3083815   9.3265309  62.7624170  49.4310664   8.3519949
  45.5553865  34.1878819  47.3056459  46.0356569  33.6376953  46.6868830
  44.9682665  33.5826302  47.7586269  30.6878431  75.7986844  63.7298489
  31.4754732  75.9293688  64.2578554  31.0021980  75.3734876  62.9319620
  32.5045085  40.1812077  53.2846022  32.8098679  39.2749310  53.3251572
  32.2478628  40.3068209  52.3710442  29.2798948  24.6000290  47.2810459
  28.4927011  24.6033216  47.8256083  29.1837168  25.3669238  46.7163754
  19.5805033  71.8901367  58.1538105  19.6512945  71.5972019  57.2452927
  19.6090038  71.0835553  58.6684465  74.7679996   2.6851675  26.3415194
  74.3051147   1.9196996  26.0008931  74.1866684   3.0359721  27.0162201
  46.1559677   3.4302375  46.7139292  46.2400723   3.4574932  45.7608175
  47.0531273   3.3251747  47.0306301  59.5604746  51.9967125   7.2055973
  59.0526311  52.1202026   6.4036764  59.7481124  51.0583542   7.2281565
  45.4628563  31.3872480  41.4637804  45.0014448  31.4261007  40.6260347
  46.1895132  30.7836580  41.3092279  14.1666658  78.1978429  51.7871714
  13.3987053  78.6759687  51.4743376  14.9017151  78.7862987  51.6149664
  11.0467577  18.9421308  53.8831854  10.3763700  18.9776516  53.2008743
  10.9438121  19.7638965  54.3631172  41.6270058  41.4466154  15.1260246
  41.9282572  40.9614473  15.8941902  40.7428472  41.1166697  14.9659218
  68.3644772   4.5062700  61.6147327  69.1508436   4.3935516  62.1487284
  67.8299809   5.1313508  62.1044445  34.0316090  22.3828671  53.8092674
  34.7379956  22.8616068  53.3756127  33.8500580  21.6448138  53.2274212
  30.3391743  48.8695097  63.8319016  31.0429788  48.2426357  63.6647987
  29.5625448  48.4668589  63.4433794  11.9058221  46.9573878  12.9052986
  12.0573895  46.7790721  13.8334526  12.5562852  47.6224463  12.6798500
  67.2805635  29.0432857  25.8884682  66.9234244  29.3802486  26.7101444
  66.5149109  28.9190684  25.3276028  84.6377365  81.7101263   9.5913567
  85.3366177  81.8944381   8.9638008  84.8923485  80.8812569   9.9967922
  45.4565339  68.8756679   0.5917801  45.6110637  68.1447338  -0.0066267
  45.1223354  69.5767306   0.0322689  22.7682829   4.5851073  38.1692934
  23.0272579   4.7975090  39.0659809  23.0134368   3.6662558  38.0604649
  38.6593413  12.9840410  36.2712932  37.9843140  12.3055553  36.2562871
  38.5748649  13.4246874  35.4257607  33.6047710  43.7611364  18.9876618
  32.8660817  43.8809259  19.5845093  34.1872959  44.4967292  19.1768707
   5.9027379  78.6439322  16.4334358   5.6328242  78.0669187  17.1478810
   6.7697899  78.9561270  16.6922535  39.9083543  23.1119657  62.4930716
  40.3353786  22.5504971  61.8460512  39.0274596  23.2510400  62.1453428
  36.2860656  14.0464544  45.9955120  36.0513735  14.1081023  45.0695753
  36.2034249  13.1154680  46.2020731  71.9269466   4.0921080  61.7378378
  72.0347500   3.2559735  61.2845278  72.8208208   4.3948939  61.8976688
  20.4506397   9.9415433  51.0841131  20.4439139   9.2192006  50.4560947
  21.2555218   9.8147213  51.5864229  32.1444640   4.8938010   2.1880116
  31.2721572   4.5141242   2.0823921  32.6589045   4.5138190   1.4758362
  57.4984503  16.3816762  66.5650177  58.3384085  16.8030143  66.7471695
  57.6577139  15.4513109  66.7240429  22.3893976  36.9894004  60.4925346
  22.6294184  36.2876940  59.8873663  22.6766181  36.6750360  61.3498020
  82.2244644  36.8707728  52.4113655  83.0915833  36.6713381  52.0584297
  81.8643093  36.0187650  52.6575422  42.2002172   9.4125676  70.4270458
  41.7255831  10.2368903  70.5340385  41.5157700   8.7589693  70.2836132
  53.9825313  73.6994504   6.4248099  53.1202881  73.4531210   6.7596068
  53.8102047  74.0405963   5.5472244  29.9406505  18.6083150  60.2657318
  30.5539632  17.8796864  60.1699162  29.7259855  18.6196089  61.1984825
  84.5135347  75.6026910   8.2810558  85.4458515  75.4839037   8.0996384
  84.2968552  76.4444254   7.8801073  36.3399959   7.3007524  40.2015352
  35.6588244   6.9864571  40.7960606  36.3530731   8.2489097  40.3321457
  46.5836839  80.8321475   9.9539246  46.3305287  81.5181421   9.3362202
  47.4200003  80.5067109   9.6209110  50.2612925  23.0221653  56.1450005
  50.2173376  23.9776611  56.1814117  49.8507690  22.7951384  55.3106356
   7.4251707  72.8916801  29.9599528   8.0330189  72.5600279  29.2990756
   7.5566848  72.3187036  30.7153559  67.8428142  59.4762312   3.8340296
  67.5646607  59.7115515   4.7191776  67.7841680  58.5211180   3.8105120
  65.4322910  43.5807037  66.6711855  65.1963377  42.6853418  66.4285088
  65.8797407  43.4907913  67.5125742  14.0687689  29.8173211  13.9364590
  14.8583684  30.0367425  13.4418739  13.8091263  30.6403039  14.3506016
  15.9589823  79.7300211  46.4285326  15.5780752  79.3849675  45.6210136
  16.8416698  79.3606395  46.4539146  20.7537709  33.4951560  10.2681984
  21.5036951  32.9733168  10.5537380  20.7931153  34.2856155  10.8065857
  80.8843231   1.6383600  65.6926632  80.2766991   0.9415099  65.9404993
  80.7899857   2.2950256  66.3826799  23.9439917  21.1965203  48.5312939
  23.9231229  21.8725944  49.2085791  23.3936501  21.5437007  47.8292799
  42.1885443  18.5960102  52.9666424  42.1309376  19.4565082  53.3819246
  41.4622831  18.5817993  52.3432827  70.0183289  79.6688937  27.7316727
  70.0027840  79.3362115  26.8342747  70.4246990  78.9671539  28.2402577
  59.7197085  56.6777993  65.2012014  59.6443964  57.5984336  64.9502230
  58.8555848  56.3084722  65.0192118  68.5163538  45.3935360  32.5184025
  68.2255022  45.9259825  31.7780365  69.2557804  45.8777671  32.8858246
  80.0785534  24.1918789  15.4079880  79.8258917  23.3280693  15.0820603
  81.0031216  24.2749392  15.1745381  48.9596128  13.8557827  50.2558565
  48.5326624  14.6965730  50.0914955  48.3040428  13.2024705  50.0116444
  57.6143996  63.8877820  40.1950516  56.7635886  63.5146164  39.9646153
  57.8239815  63.4997009  41.0445847  14.5663302  52.9618763  45.7175697
  14.2289632  52.3295532  46.3520588  15.4982226  52.7553032  45.6458725
  21.1199482  52.4585296  24.6693230  21.8688066  52.8895784  24.2574501
  20.3771503  52.6807524  24.1079855  50.5081336  75.5359601  31.4291157
  50.8407418  76.3379119  31.8322052  49.6761934  75.7944654  31.0325302
  38.7689090  17.9468620  62.3110247  38.8609028  17.4162591  61.5196753
  38.7000585  18.8459516  61.9898844  20.1984255  70.1373695  11.5550293
  20.6996482  70.8609031  11.1788525  20.5926316  69.3510912  11.1774029
  79.4223110  47.1767961   3.4807409  79.0297119  47.4784736   4.2999424
  80.1662724  47.7627973   3.3416189  13.6387002  27.2361088  41.2181902
  13.4462678  28.0641699  41.6580963  14.5563710  27.0615292  41.4270782
  59.6644592  17.7520931  60.4934120  60.0795031  18.0950940  59.7020054
  59.3430805  16.8869233  60.2395868  45.6743288  16.6117263  33.7929630
  45.2839518  15.7391393  33.7436962  45.1734018  17.1339476  33.1663966
  29.8772082   3.8869498  21.8644299  30.4212126   3.5157082  21.1698307
  30.4893670   4.3807719  22.4099983  38.3848953  42.9040194  67.6175547
  37.6216269  43.1451511  67.0926666  38.8861918  42.3142481  67.0544386
  31.5558004  30.8814192  68.1881618  30.6490850  30.6980872  68.4341049
  32.0557475  30.7371020  68.9915657  30.0083017  29.1370153  41.5137482
  29.4998288  28.9991760  40.7145691  30.9206128  29.0732503  41.2311649
  44.2499447  15.3407395  61.4498663  43.5478306  15.4413164  62.0926332
  43.8747311  14.7797251  60.7711124  46.0864620  64.1683005  17.0390476
  46.4291648  64.8709057  16.4866604  45.2706198  64.5200299  17.3953022
  85.0862495  42.7894107  13.8649334  86.0112612  42.6570194  13.6574330
  84.7830097  43.4224273  13.2141079  52.8725481  27.1862030  48.1203222
  52.2666073  27.3799682  47.4051189  53.7414980  27.3051620  47.7369070
  35.1431918  28.1695127  50.9573507  35.4876351  27.5130844  50.3518009
  35.3494406  27.8253150  51.8263817  33.8187718  31.3668990  56.1858511
  34.4039559  30.8469510  55.6349897  33.8146257  32.2335911  55.7795763
  72.1422951  30.0385545   7.6156677  72.0854465  30.8237051   8.1602205
  73.0780117  29.8404597   7.5779595  51.2791102  66.7406200   8.4947981
  51.0785239  65.9158562   8.9372458  50.4682963  67.2461938   8.5514893
  74.1090576  43.1726264   5.3974880  73.2265799  43.3349754   5.0641598
  74.6874754  43.5773154   4.7510399  43.4793806  11.5255618  45.6897449
  43.1216002  11.7680824  44.8356962  42.7276325  11.5552580  46.2815428
  13.1043324   0.3139851  13.3832802  13.9116940  -0.1028659  13.6843456
  13.2941470   0.5823062  12.4842800  65.2301113  76.1032723   7.5967564
  64.6190373  76.0565160   6.8614735  65.3956120  75.1895712   7.8291096
   0.7914488  71.2348484  21.7952027   0.5245059  70.7664035  22.5861038
   1.0792153  70.5469512  21.1950173  43.7445927  44.1651678  54.8350811
  43.8408852  43.4552717  54.2002487  42.8000450  44.2370558  54.9725580
  44.0770817  21.7372775  67.9383802  44.6363592  22.2799373  68.4942198
  43.1850624  21.9854379  68.1811810  51.3611031   8.8997066  50.3977108
  51.5640879   8.1671703  49.8159742  52.1858025   9.3793195  50.4756260
  51.0631132   2.2900932  69.9059629  50.5742645   3.0677977  69.6368265
  50.7310295   2.0893821  70.7809925  46.9912004  41.5182447  58.0209637
  46.4664364  41.9008541  57.3177814  47.8582001  41.3968372  57.6339245
  18.0844712  28.7737203  49.3541384  18.3276594  27.8661871  49.1711712
  17.1792173  28.7219262  49.6608400   9.4286530  59.3156611  46.1339153
  10.1182931  59.0885542  45.5101742   9.3460171  58.5422002  46.6917290
  64.2827415  36.2509370  49.3505764  64.9925089  36.3573003  49.9839401
  64.6887922  35.8022976  48.6089039  26.5096888   2.0893786  21.3161530
  26.9382748   2.8250382  20.8787216  27.0036635   1.3205645  21.0312809
  66.9593048  43.4103727  58.8970518  67.3745918  42.9951668  59.6529436
  67.2173643  42.8662062  58.1530666  58.1284714  36.5308213  58.5367775
  57.3903894  36.3391113  59.1153193  58.2019377  35.7572150  57.9778767
  74.0406418  14.4102669  53.7247324  73.7130022  14.9833798  53.0316067
  74.2105913  13.5767150  53.2859421  41.9329230  62.1390866   3.0870690
  42.5711839  62.5965212   3.6344303  41.3883810  62.8359269   2.7208437
  60.7780838  26.4186168  54.9263716  60.4370594  26.1177897  54.0840912
  60.0274944  26.3733053  55.5186462  16.1477940  55.1303588  21.0899223
  16.9248431  54.5764779  21.1650433  16.0125106  55.2266275  20.1472344
   4.4119628  81.0111863  42.2074366   3.9976485  81.1071015  41.3498926
   4.7863062  80.1303039  42.1953964   2.8888686  79.8201368  56.5831375
   3.3094199  79.6947589  55.7324600   3.3261879  79.1947968  57.1610069
  66.9693105  39.8766437  18.2484497  66.0797278  40.1966999  18.3982529
  67.3536531  39.8191597  19.1232075  57.8162400  69.0820025   5.6666865
  58.0702035  70.0038146   5.7113852  58.4088294  68.6405347   6.2751068
  65.9838438  47.5064898  55.3306532  65.8495378  48.4506941  55.2489424
  65.1040554  47.1489048  55.4503870  86.1077826  80.1831220  24.8277058
  85.1722710  80.1467608  25.0270142  86.2409393  79.4941042  24.1767372
  21.9048691  41.0630322  56.5063047  22.8347111  41.1926413  56.3196898
  21.8655015  40.2159882  56.9503689  11.9648728   8.0351136  20.5090202
  11.1512980   8.2493899  20.9655346  12.5890383   8.6959145  20.8089985
  74.5670740  40.6824896  30.5938973  75.3822700  40.8200574  31.0763516
  74.3842356  39.7482650  30.6940235  30.8817134  19.3813918   3.6851706
  31.5367779  19.4635747   2.9920878  31.1965022  18.6583779   4.2277493
  29.4571137  13.2365155  66.3870573  29.2013288  12.8776550  65.5373335
  28.6397123  13.2839966  66.8828678  35.7947135  14.7444975  69.9770594
  35.3418159  15.5437458  69.7081423  35.4364252  14.0631974  69.4081211
  33.5364032   2.1630770  48.7696218  32.7627683   2.5126699  49.2117834
  34.1118908   2.9200017  48.6595726  78.5283073   3.3001492   4.7227778
  78.6626657   4.1177724   4.2435373  79.2460546   3.2726596   5.3554787
   8.8498967  53.1280862  29.8748745   8.0499261  53.0861722  29.3509258
   8.8413088  52.3214100  30.3900780  52.2346687  17.0103073  69.6425533
  51.4049864  17.4823117  69.7137642  52.2305584  16.6512251  68.7552691
  54.4300938  55.7044840  53.9726400  55.2787495  55.3590298  54.2495537
  54.0385818  56.0495472  54.7750616  75.5654010   0.8014701  -0.2919517
  75.1657709   1.3221810   0.4047407  76.1894819   0.2342818   0.1608767
  70.9841387  81.0598825  20.6474365  71.0393946  80.7168149  21.5393318
  70.7047026  80.3116511  20.1198925  32.9697609  26.7619324  45.7318640
  32.2063136  27.3236585  45.8654499  33.7122703  27.2956705  46.0147667
  65.9604423  44.4491823  15.7884754  66.6847770  45.0036435  15.4983963
  65.9666602  43.7096526  15.1807846  78.9200727  70.3818058   5.6483950
  78.5864346  69.5522092   5.3068031  78.1399624  70.8484005   5.9483160
  75.6169660  64.1690792  70.1011944  74.7145469  63.8508655  70.0764656
  75.9305115  63.9325238  70.9741020   8.4775155  52.3134814  36.4117970
   8.2268803  52.6965617  35.5711712   8.3164256  51.3759612  36.3053192
  19.0647683   8.4607241   6.4320006  19.7969279   8.2050393   6.9930710
  18.2892165   8.3377144   6.9793810  82.1918964  38.7291598  67.3556566
  82.4816418  39.5431232  66.9436598  82.9920197  38.3430219  67.7119446
  52.1873808  28.9829588  67.4330282  51.3594627  29.4630623  67.4161482
  52.1292067  28.3790898  66.6926289  47.1230936  37.8702044  56.6545677
  46.2950611  37.7806091  56.1827946  46.9315386  38.4891105  57.3591948
  62.5137377  25.6205440  56.9651508  62.0506382  25.7522941  57.7924442
  62.0273399  26.1481953  56.3317251  36.1749983  34.2023778  58.2553291
  35.9556794  34.9806595  57.7430677  36.3908887  33.5379553  57.6009798
   4.5094340  60.4253458  22.3820938   5.1023572  60.9996556  22.8667034
   4.3594592  60.8802734  21.5533699  68.9668179  43.0588722  64.0146637
  69.8996449  43.1979990  63.8512468  68.7779999  43.5876083  64.7899151
  61.0586516  50.5754404  17.7621426  61.8173186  50.0054334  17.8876366
  61.3115994  51.1563598  17.0446648  71.8056870  37.9666543  65.0052834
  70.9121990  38.2079268  64.7609377  72.3186970  38.1109834  64.2101622
  68.3444738  56.4611912  25.6221056  68.8975096  56.1327028  24.9132466
  68.1984949  57.3819351  25.4049540  44.6540451  18.0894852  61.6184473
  45.3118753  18.0167437  62.3099709  44.2872810  17.2085500  61.5431499
  31.7634058  17.1519184  70.0379324  31.2455583  17.9050922  69.7536898
  32.6716805  17.4180770  69.8950052  25.2304180  46.3144613  37.9549837
  25.6187017  45.5911399  38.4471965  24.6986492  45.8884669  37.2826862
   8.4263408  13.5602021  68.7304401   7.9410225  13.0010223  69.3370819
   8.9464599  12.9506898  68.2067966  86.1156368  49.1924477  49.6892118
  86.0147572  48.2944059  49.3736506  86.9024658  49.1680002  50.2337599
  25.5692649  42.7065754  70.9099054  25.8156276  43.5921955  70.6430531
  26.1875343  42.1375656  70.4514265  12.0984261  42.2127032  26.3091053
  12.6317637  42.2886874  27.1003117  12.7046054  41.8914881  25.6415714
  26.4409400  58.8024102   4.9139942  26.0856513  59.4795536   4.3382563
  26.7420788  58.1158410   4.3188728  72.2298479  26.0334826  68.9729691
  71.5634155  25.8344078  69.6305943  72.6199293  26.8560576  69.2686653
  24.2022586  32.3145509  58.3299494  23.8545394  32.2943449  57.4383688
  24.9399590  31.7048383  58.3132029  51.9089214  68.8001417  54.4796528
  51.1841123  68.2852338  54.8342671  52.6365892  68.6337565  55.0788654
  46.0256386  16.8134439  63.9258909  45.7781124  15.9716713  64.3084860
  46.5739727  16.5836024  63.1757355  60.3612566  23.7218833  45.8332109
  59.4383240  23.6925840  45.5810738  60.7526493  22.9645991  45.3978252
  15.5586999  75.2354406   3.9204039  15.1283591  75.2416657   3.0654158
  15.3162139  76.0723351   4.3166889  73.3553123  28.3682752  69.7973108
  73.8933229  28.2652354  70.5822706  73.5927773  29.2303109  69.4556475
  35.6936917  21.8253825  47.2832073  35.7877717  22.5849078  46.7083134
  36.3512740  21.2045977  46.9694485  31.0853753  14.4093297  26.1392273
  30.4154715  14.2655585  25.4708065  31.1017069  15.3585265  26.2616886
  77.1383421  30.0035702  22.1772637  77.1024410  29.2607890  22.7799381
  76.3230650  30.4796539  22.3350586  86.3995266  21.0788560  68.8966274
  86.2012196  21.8035793  68.3035994  87.3551655  21.0242891  68.8969803
   2.8774588  49.3443535  12.0273747   3.3245795  49.3993811  12.8719391
   2.1702426  49.9864905  12.0884957  82.4188177  57.6045476   8.6030115
  82.5911562  57.9648183   7.7331032  81.5094606  57.3083221   8.5637201
  10.7689994  56.5296386   2.5186028  11.3371985  57.2568546   2.2645582
  10.2404540  56.3552998   1.7398371  76.9610731  76.2018989  13.6603893
  77.7969925  75.7681058  13.8315453  77.0654575  77.0780037  14.0315689
  53.6339808   8.1098294  69.6755123  53.3067369   8.1974316  68.7802649
  53.0007935   8.5890937  70.2099419  70.5544893  63.6975740   1.7706741
  70.4899733  62.7597688   1.5901341  71.0370008  64.0525697   1.0240854
  75.3096764  69.5792793  27.1196617  74.8917667  69.3056463  26.3031353
  76.2021486  69.2388462  27.0577397  60.0182962  41.4151192  56.7242336
  59.4869757  41.1588097  55.9704208  60.2821255  40.5864573  57.1241713
  63.7516372  51.4374529   9.1615738  63.5899608  52.0421027   9.8857941
  63.1508700  51.7223834   8.4730066  81.5895089  12.2861836   0.0567831
  81.2009796  12.9434607  -0.5205093  80.9007462  12.0873139   0.6910433
  45.3556824  63.2875013  45.5748034  45.6597948  62.3841476  45.4870367
  45.8662415  63.7759066  44.9290276   2.8841441  22.9071842  10.0363220
   2.5326388  23.4131645   9.3037476   2.1830695  22.9105972  10.6880249
   7.5350802  51.6059683  25.7978501   8.2888405  52.1224235  25.5126251
   7.9046910  50.9474908  26.3860954  80.0143806  45.6455811   6.4783587
  80.5582611  45.3867455   5.7344307  80.0875608  44.9161466   7.0938267
  27.8343177  36.5068626  67.5423765  27.3739290  37.1339154  66.9846296
  28.0244565  36.9939780  68.3441210  12.6968348   3.7220177  69.7708893
  12.9598904   4.4383946  69.1931009  13.1810331   2.9626539  69.4466162
  74.7274916  56.3298379  15.1405682  73.8438026  56.3399993  15.5082955
  74.8467056  57.2082041  14.7793354  31.1107945  31.4350271  55.2132034
  31.6221690  30.7335806  55.6165648  31.2990379  32.2064590  55.7476997
  73.9004747  78.8927697   3.3745398  73.1238691  79.3743776   3.0896343
  73.6242668  77.9763268   3.3829559  55.0455346  18.6274073  40.9519447
  54.0989193  18.7493537  40.8792843  55.3934548  18.9536259  40.1220287
  67.8463888  75.7060862  52.4213505  67.6248789  76.5770960  52.0919371
  67.4213076  75.6586218  53.2776690  42.1521950   1.3566019  68.9930105
  42.5888252   2.1893732  68.8139057  42.5252104   0.7484759  68.3548307
  76.8749142   1.3423587  61.0638428  77.1450377   0.4349172  60.9230757
  77.5543261   1.7095175  61.6293764  85.8536903  73.3535122  37.0198979
  84.9357025  73.2253312  37.2588600  86.3251583  73.3170746  37.8521408
  53.6036587  21.5517044  68.3632660  54.0477419  22.2708631  68.8125229
  53.0469084  21.9820666  67.7143764  84.3030016  27.2027813  30.7474770
  85.1672260  27.0527421  30.3643002  83.7206118  27.3002301  29.9941124
  42.4332476  25.2926636  43.8661623  42.1797037  25.5694604  44.7466898
  42.5123739  26.1086559  43.3720684  80.7184499  26.4263129  59.2660141
  80.4758602  25.7084799  59.8509073  80.7723361  27.1926951  59.8369694
  13.0294263   5.9639829  67.5768757  13.3434808   6.5246713  66.8674850
  12.2850919   5.4949301  67.1997976  68.5260057  65.4342270  53.1423330
  68.1166220  64.5699406  53.1018257  69.4309616  65.2587605  53.4002018
  11.9328389  10.1003287   4.8628773  11.6707501   9.2279694   4.5687164
  12.7671466   9.9613593   5.3110375  43.2216740  31.8472743  61.5275669
  43.6361599  32.6462388  61.2018538  43.2227278  31.9478464  62.4794722
  40.8342409  30.3574991  68.4027910  40.7407999  29.7250915  67.6903582
  41.4214659  29.9305415  69.0265751  17.3170552   7.0344899  16.4668144
  17.3485980   6.0848735  16.5828385  18.2221875   7.3209117  16.5889992
   7.9022067  66.7760490   8.9359631   8.0667012  67.0262502   9.8451199
   8.6908476  66.3024376   8.6714424   9.4739335  59.4919704  22.5133766
   8.8869374  58.8160859  22.1744789  10.1498025  59.5811020  21.8414463
  74.6367788  39.5097065  69.0891457  75.5382109  39.4977307  68.7674141
  74.1713667  40.0791979  68.4765291  25.8017390  71.0081886  14.9622311
  25.8907359  70.6262277  15.8353962  26.6985743  71.0628794  14.6321835
  38.0473075   6.8000481  27.6860108  37.1170601   6.6966174  27.4855770
  38.2022318   6.2036822  28.4185280   8.9224713  45.1214217   3.7218966
   8.8006585  45.5642836   4.5616974   8.2233040  44.4683512   3.6918797
  78.0086136  50.8670044  32.8770232  78.9238691  50.6325579  32.7234864
  77.8408384  50.5983591  33.7803006  63.9658594   7.1317995  51.8918324
  64.8264837   7.3393148  52.2558355  64.1518116   6.7895681  51.0174561
  12.1265023  55.0073908   4.1905417  11.4100735  55.3445397   3.6526789
  11.7069476  54.3872820   4.7869267  80.3072437   0.7771990   4.4242491
  79.4259509   1.1243460   4.2862429  80.8124646   1.1032984   3.6795057
  52.3228025  55.1858711  66.8395138  52.8574657  55.8741283  67.2353268
  52.7347231  55.0204849  65.9914541  79.2675392  14.9375890   4.2103304
  78.5617678  15.5802582   4.2817177  80.0099604  15.4343675   3.8664545
  68.7710230  54.4896518  36.8061222  68.8501994  53.9991354  35.9879746
  69.4217531  55.1875924  36.7308678  68.5365343  74.4750261  57.2045517
  68.7190676  74.8552704  58.0638123  69.2077208  74.8453140  56.6312933
  42.3133469   9.1926289  60.8022594  41.8815517   9.0917867  59.9539566
  43.0267429   8.5546559  60.7852268  26.3100243  34.5236802  32.0534611
  26.8544483  35.2066398  31.6617942  25.7660151  34.9869251  32.6903987
  39.6025062  27.7360725  64.1917849  38.6488390  27.7226257  64.2728424
  39.7631598  27.7064514  63.2486296  57.0137548   7.6505655  62.1750736
  56.1310291   7.9261923  62.4221706  57.5812149   8.0394918  62.8406239
  11.6362246  74.8760421  51.5308380  11.6735609  74.4174851  52.3702240
  12.1923693  74.3573142  50.9495878  29.0347584  64.9311627  70.0965500
  29.2992123  65.4846788  70.8313417  29.0279396  64.0438140  70.4554319
  53.7891666  81.0223411   1.8259205  52.8856174  80.8185171   1.5844978
  54.0861003  81.6315292   1.1499371  14.7239979  79.8435456  31.1348701
  15.0941475  80.2215443  31.9325805  13.7829359  80.0020797  31.2090158
  38.9746857  64.0766335  70.2878332  38.8077378  63.5140085  71.0440159
  38.6302018  64.9318886  70.5449390  69.1934824  59.9655819  66.6151524
  69.8091698  60.0839138  67.3384476  68.4680128  59.4711971  66.9966078
  24.8336339  39.5863318  50.5203676  25.3816724  40.3570557  50.3724909
  24.4920921  39.3654799  49.6538782  34.4816113  15.2256465  11.5135515
  33.8500929  14.8420703  10.9050417  35.2578068  15.3932893  10.9790909
  42.3179920  76.8036155  52.5034761  42.5469215  77.7056665  52.2795868
  43.0805309  76.4739526  52.9789639  61.1340141  57.2543526  51.4006281
  60.7169819  56.4570665  51.0740566  61.9610548  56.9547129  51.7780590
  50.5270307  59.8575889  37.2260727  50.0451438  59.0395735  37.1041359
  50.9925096  59.7401975  38.0541958  83.7167963  15.6418345   0.5345167
  83.9787730  16.3878081   1.0740770  83.2605585  16.0334370  -0.2102791
  71.6340494  69.7517300  66.3846207  71.9319010  69.2955112  65.5976105
  71.4064026  69.0511751  66.9958735  85.7180731  44.1264658   8.5929836
  85.3230659  44.5093267   7.8096451  85.1298611  44.3777569   9.3050827
   5.5898795  13.0758593  29.2858280   4.8489294  12.7901623  28.7514080
   5.2200994  13.7317059  29.8768963  84.8969063  10.1440499   3.8232960
  84.7996839  10.8312199   4.4825186  85.0356230  10.6171439   3.0028261
  36.1188674  38.4255433  65.0714827  36.0987639  38.8069820  64.1937971
  35.2064037  38.4409332  65.3602839  84.4564804   6.3704751   1.2458719
  85.0959429   6.8588851   1.7643084  84.2917475   6.9257186   0.4837670
  55.6748629  35.7379603  70.0089025  55.3648615  34.9623060  70.4763317
  55.1280451  35.7792830  69.2243528  43.6825418  32.3174524  69.8729992
  44.1875505  31.6240692  70.2977562  42.8229570  32.2789216  70.2923489
  42.6958179  38.2290721  48.9284134  42.4290180  37.9841399  49.8144436
  43.6144590  38.4831715  49.0165234  43.3268070  63.8923120  69.8522806
  43.0915546  63.9065933  68.9245510  42.6280785  63.3878279  70.2688169
  55.3282444  74.3150734  24.3168320  56.0050909  73.8514398  23.8237251
  55.7446210  74.5295690  25.1516117  44.8363543  22.6886082  50.3549099
  45.4077864  23.4562373  50.3758955  44.6761894  22.4839926  51.2761641
  65.6576340  79.8658393  21.8466915  66.2913935  80.5399464  22.0919670
  64.8319571  80.3391789  21.7445149  47.5359854   1.8587563   9.9816574
  46.8855414   1.3025067  10.4103150  47.0413003   2.6245139   9.6898903
  50.7764482  14.4616044  56.2767982  51.5463448  14.6879196  56.7986012
  51.0104609  14.7127128  55.3832579  29.5543718  41.5396357  47.2165298
  30.2979398  41.5585136  47.8190088  29.8867536  41.9402170  46.4132309
  66.1319034  29.8754703  29.8582901  66.0569159  28.9212512  29.8668923
  67.0224611  30.0485014  30.1635708  46.2022781   6.6976076  30.3213573
  46.0322332   7.1763802  29.5101285  45.8682299   7.2701496  31.0118914
  38.4983659  19.2559409  67.5968075  37.7245736  18.7268281  67.4031115
  38.2556367  20.1422644  67.3289537  45.9126186  45.7459307  54.4258070
  46.6142750  45.1225376  54.6136713  45.1067686  45.2470732  54.5598745
   1.7330306  43.6948581   3.2108463   1.6093247  44.0913974   2.3484768
   0.8686345  43.3571740   3.4454121  74.1788094  55.1795195   6.2523760
  74.8761932  55.6837760   5.8333124  74.4101326  55.1768588   7.1812023
  55.2776909  33.5248065  51.6205788  54.4830751  34.0295291  51.7939854
  55.8065701  34.0949583  51.0625029   6.4348794  52.2042465  58.1209087
   6.8049050  52.2276497  57.2384262   5.7856274  51.5015888  58.0898333
  57.9776971  46.2260722  10.5402912  58.0977957  46.7067550  11.3592877
  57.1989171  46.6176026  10.1447643  14.5326193  71.9391693  45.9080791
  13.7898262  72.4189855  45.5416584  14.9634464  72.5693370  46.4855814
  15.0359719  61.5327190  12.4324192  15.5984824  62.0939611  12.9661049
  15.5348914  60.7223807  12.3291554  81.6736889  13.3130932  66.3023090
  81.9410038  12.6545107  65.6611824  81.1222458  12.8346968  66.9213963
  59.2250109  35.8612990  47.9313183  60.1554346  35.8350015  48.1545973
  59.1989851  35.6805062  46.9917059  29.0413134  72.9032014  44.3549790
  29.9135440  73.2630156  44.1938366  28.6885207  73.4393071  45.0651611
  14.4993870  41.1816907  43.1506886  15.2955191  40.8061618  42.7746834
  14.8012774  41.9549243  43.6273541  17.7413821  54.9862337  50.7491636
  17.1552658  54.9480915  51.5049696  18.5768390  54.6533346  51.0769176
   4.1334098  78.8765834   4.5215382   3.8717358  79.3761562   5.2949633
   3.3074467  78.6106418   4.1174473  41.4110041  41.3733864  43.6181545
  41.3882017  40.5091286  43.2073402  41.8662977  41.2320900  44.4481993
  71.1840248   7.4491119  55.9237385  71.4542961   8.1991512  56.4534807
  71.5940237   6.6956717  56.3485479  60.8192158  23.1776309  68.4484959
  61.6714382  22.8997803  68.7842655  60.8141041  22.8855300  67.5369692
  43.6508942  38.8317108  59.1962957  42.7553034  38.9316559  59.5190382
  43.9303589  37.9776239  59.5259333  54.0627193  14.7147560  66.4802074
  53.4575701  15.4453564  66.6076756  53.5043049  13.9373457  66.4864063
  60.8746473  81.8338893   9.1963638  61.5357201  81.9648479   8.5166039
  60.4542129  81.0056232   8.9651789  47.2905159  18.7203515  65.1405811
  46.7199850  18.1135881  64.6688128  47.1356153  18.5252535  66.0647964
  52.5177622  12.9372144  38.6512208  51.7717266  13.0342376  38.0594039
  52.7020168  13.8269842  38.9522052  32.7483559  23.7750435  65.7651997
  33.5510612  24.2886043  65.8554888  32.0753932  24.4191790  65.5451012
   6.4835208  32.2346358  34.2478432   6.9463961  31.5842669  34.7760452
   6.8826096  32.1667306  33.3804669  49.1423798   1.4721809  66.1830139
  48.8076782   2.1028732  66.8205357  49.8935509   1.0681602  66.6174603
  63.7511015  36.6601992  58.7954283  64.3565893  37.3888230  58.6585903
  63.0490589  37.0295525  59.3311071  54.6295733  44.8943640  49.3113136
  53.8433505  44.9524117  49.8541880  54.6863658  45.7470346  48.8800812
  51.2856245  72.3676109  59.7253561  50.4181862  72.3795271  60.1298809
  51.8534279  71.9738817  60.3877831   4.6085160  49.2883663  14.2693867
   5.0181000  49.4678866  15.1156964   5.3040354  48.8895570  13.7464775
   2.9400954   5.4261325   3.8653292   3.0877456   6.2059138   4.4004645
   2.5999794   4.7752259   4.4792332  31.3638959  30.3814576   4.3770708
  31.2368521  29.5831559   3.8644184  30.9670386  30.1866076   5.2260508
  63.7837927  62.9028629  18.5679783  64.6640484  62.5606464  18.7237705
  63.9239566  63.8104795  18.2981362  21.7055058  23.7509298  59.0885544
  21.2074542  23.9044166  59.8914337  22.2923899  24.5042634  59.0230560
  62.0708847  14.7723424  69.9400759  61.7564392  14.9355924  69.0508604
  61.5288353  14.0498328  70.2569342  58.5831165   7.2812647  67.5846100
  57.6639032   7.2754514  67.8515387  58.5980368   6.7848939  66.7663050
  61.8608348   2.6039647  59.8526621  62.1792285   2.6160096  58.9500475
  61.0812489   3.1592130  59.8390675  51.2208414  39.7900295  52.0446110
  51.8440390  39.0691519  52.1351004  50.8156586  39.8662162  52.9084730
  52.3256819  63.1304883  32.2436394  52.0170061  63.8075946  32.8456940
  51.8220918  63.2746790  31.4424862  46.9993691  56.2167071  34.9024929
  46.1488096  55.8685015  34.6350350  47.5780575  55.4543017  34.9119438
  84.0765135  41.5325664  10.5313172  84.7833673  40.8900239  10.5923905
  84.4755976  42.3552956  10.8143009  76.5698814  43.8141394  53.5740089
  77.5219774  43.7203026  53.5432911  76.3179016  43.4263086  54.4120598
  81.8728678  72.4698685   1.5948691  81.6190426  71.7391656   1.0310663
  81.1775867  72.5189398   2.2509255  18.1434584  15.0110674  29.0676761
  18.3399761  14.1477013  29.4312859  18.1226742  14.8730600  28.1207061
  47.9956834  60.0606750  17.5284256  47.2993509  59.4585763  17.7907814
  47.6840059  60.9224151  17.8050007  64.9814558  36.4267373  69.0909672
  65.0549603  37.3811102  69.0928221  64.2169809  36.2464571  68.5438776
   4.8650878  61.7762230  15.3362431   5.2150910  61.4852737  14.4941677
   3.9912169  62.1082948  15.1305355  45.8713818  60.6173992  38.0130196
  45.4827023  60.5431080  37.1414447  45.5922127  61.4773703  38.3272552
  16.3811955  25.6903956  16.1192764  16.7434058  25.0695298  16.7513813
  16.4459691  26.5404961  16.5544380  51.9089174  43.3339167  53.2666588
  51.1266899  42.8015947  53.1218147  51.9954348  43.3783579  54.2189026
  56.5897369  46.7232990  67.5399446  57.5140858  46.7235756  67.2913170
  56.2519598  47.5548124  67.2071981   7.7508736  21.2582231  28.9599276
   8.5791684  21.2026668  29.4364476   7.2038842  20.5764675  29.3501139
  11.6526780   4.6678946  17.8240837  11.2821326   4.5813344  18.7024082
  11.8770489   5.5954049  17.7491249  79.9452019  15.8708191  40.3280258
  79.0775299  16.2602913  40.2199221  80.0355434  15.7456422  41.2726927
  37.0234761  15.8269379  27.5802864  36.2465939  15.3021691  27.7734341
  36.7064891  16.7300913  27.5721230  15.4808037  81.6903947   8.8727249
  14.8728840  80.9739660   9.0554728  16.0884469  81.6834329   9.6122898
  76.5923929  63.3495760  47.4364805  75.8774233  63.3416462  46.8000937
  77.3496008  63.0235672  46.9500828  13.9526713  26.1532879  49.1874838
  13.2115650  26.0061145  49.7751331  13.5870183  26.6616321  48.4635258
   5.7347100  70.2795647  16.1076035   6.1516802  69.4391798  16.2976708
   6.4574092  70.8534764  15.8535065  80.7895033  74.7382616  10.0316681
  79.9274532  74.5094894  10.3791775  80.6302683  74.9396847   9.1095413
  63.8567877  60.5747700  69.0685034  64.3124056  60.4129028  69.8946047
  64.3714666  60.1019192  68.4144735  47.3624930  34.6207402   0.5468573
  48.0071435  34.1084645   1.0349526  46.5174994  34.3384431   0.8969034
  81.7127228  11.2231326  38.0195999  82.6303101  11.1912966  38.2902217
  81.7196083  10.9162068  37.1129680  53.5641241  26.6379428  60.6008196
  53.7556601  26.5410233  61.5336370  54.1505194  26.0160232  60.1700211
  70.4838610  57.1696091  33.8832068  71.2590599  56.7535925  33.5060811
  70.4286242  56.8137884  34.7700953   1.6379445  64.6501897   2.3908247
   1.6058390  65.6068014   2.4004616   1.0816710  64.3844865   3.1230797
  23.6429381  39.5709872  52.8581572  22.8577948  40.1165867  52.8122902
  23.9984560  39.5877028  51.9695854  53.8971886  36.4223168  15.6999935
  53.0044827  36.1235163  15.5267014  53.8998494  37.3398278  15.4272236
  21.5950482  68.0113624   3.9625801  21.0918944  67.8748249   4.7653402
  22.5052588  68.0571054   4.2552675  81.1430256  70.4252623  13.7157025
  81.2718145  71.3640808  13.5805477  81.6142885  70.0122450  12.9921307
  77.7566004  27.5144887  62.9115677  77.1210718  27.7148819  62.2244167
  77.7670145  28.2963943  63.4636068  68.5220322  21.1491225  18.6257233
  69.2010018  21.3561080  19.2678990  68.3427295  20.2182648  18.7583317
  10.3702435   5.6474421  25.8918156  10.9952364   5.9013960  25.2127518
  10.1904401   4.7234175  25.7183804   9.3004323  29.6403718  54.2284346
   9.7596837  30.0642395  54.9534559   8.8666630  30.3582883  53.7672710
  72.8037636  47.0108567  22.2207512  72.3974983  47.5054877  21.5090527
  73.5464899  46.5675406  21.8108048  80.0467110  57.9603195  66.0864496
  80.7432175  58.4755707  66.4934206  79.9714184  58.3164072  65.2011442
   4.6358674  78.5953115   9.0528263   4.3026393  78.1250452   8.2886042
   5.1095193  79.3421935   8.6866917  77.1571247  57.2705053  39.8112549
  78.0305378  57.4527143  39.4645847  77.2393505  56.4133094  40.2292122
  50.8716426  24.3728516  11.4031281  51.2587914  25.2480624  11.3842453
  51.4651665  23.8601945  11.9518913  24.8418658  54.3975304  12.4967922
  25.5354064  55.0467704  12.6139702  24.0321772  54.8783754  12.6683296
  59.3282080  58.7231207  52.9869413  59.8217964  58.3305931  52.2668552
  59.9301863  58.6995840  53.7307835  70.4659462  28.6681271  66.2391663
  70.9929419  29.4305897  66.4782524  70.3302240  28.7570548  65.2958202
  49.3254232  49.6031904  52.9958773  50.2535105  49.4311762  53.1549263
  48.9229345  48.7352943  52.9643869  84.9543659  53.4412991   1.3831677
  84.2590277  52.8717064   1.0540785  85.6095211  52.8396855   1.7368092
  44.4374833  56.9087384   6.5397085  44.9083504  56.0757229   6.5149559
  43.9755139  56.9477055   5.7022728  59.7335052  29.8190069  56.8487024
  59.1968536  30.4031396  57.3844481  59.5053530  30.0441480  55.9467649
  73.7539816  60.0225973  58.6435413  74.4574690  59.5491219  59.0875626
  74.1575336  60.3541374  57.8413773  66.4946699  43.7816095  69.4299936
  67.1809196  44.2719507  68.9773846  66.8752098  42.9153633  69.5750523
  44.9047518  36.2140703  50.9299040  43.9559460  36.1251116  50.8399677
  45.1404428  36.9042110  50.3099155  45.6813431  56.5699339  49.7870064
  45.6170511  56.7720556  48.8536024  46.0770845  57.3506546  50.1744270
  41.1737284   4.4959424  18.2570805  41.8351445   5.1878522  18.2611050
  40.8161196   4.5012782  19.1449513  54.7906971  63.6546659  50.9398651
  55.5296278  63.9902449  50.4323244  54.3808031  64.4358492  51.3113117
  75.9177248  78.3561300   5.6671156  75.1763527  78.8738321   5.3531422
  75.6166689  77.4491380   5.6126751  48.4195662  56.7079353  70.8524036
  48.3889246  57.4701643  70.2742100  48.1612062  55.9739351  70.2949762
  49.2266083  42.3206854  64.6351767  49.5642042  42.9671621  65.2551126
  48.8810253  42.8416252  63.9103127   6.5726599   5.6497595  47.1181263
   6.0484180   5.8615277  46.3457550   7.4219808   6.0581324  46.9504513
  84.1296904  73.4861539  31.3262715  84.9660961  73.6073683  30.8768620
  83.6346571  74.2814444  31.1295952   2.3070464   8.9031336  16.4296784
   3.1838140   8.8997338  16.8137325   2.2691259   8.0987809  15.9121765
  80.0600815  22.9810953  40.4278421  80.2903652  22.1049023  40.1188374
  80.8998394  23.3887959  40.6395435  19.7963803  70.2848481  18.0719723
  19.4787591  70.7754181  17.3138870  19.2255776  69.5177888  18.1171669
  40.0120387  27.5443242   5.5325379  39.7034869  26.9995330   6.2565769
  39.2221818  27.7454875   5.0306524  81.3130745  16.5238640   3.6995329
  82.1873650  16.5635083   4.0871872  81.4715346  16.4432500   2.7589907
  17.3231412  49.4129467  57.0330811  17.9036713  50.1110792  57.3361206
  16.5642167  49.4633818  57.6142168  76.7393732  20.4482913  43.2331657
  77.1832180  20.2011061  44.0444183  76.9035721  21.3873458  43.1468582
  21.2732132  59.5063568  53.1045675  20.4318817  59.5751286  52.6532745
  21.7199524  58.7803937  52.6691008  44.7648287  62.6313829  35.5246878
  44.2487717  61.8332434  35.6382251  44.7002983  63.0802631  36.3676429
  80.0170803  23.8997149  53.7927914  79.8906708  23.8033891  52.8488779
  80.3657532  24.7848415  53.8986540  65.3468704  23.3676720  63.5555124
  64.6889925  24.0111351  63.8189220  65.0063753  22.9964566  62.7415752
  78.8793168   4.1135047   9.7608914  79.1867337   4.5760939  10.5404629
  79.4410405   4.4339011   9.0551724  68.0268955  48.7253475  48.4580898
  68.1296206  47.9166317  48.9597464  68.0025148  48.4393120  47.5449514
  55.1849827  38.3489583  11.5148129  54.4629464  38.9771912  11.5002026
  54.8510346  37.5891278  11.0379757   0.5637360  15.8714592  19.5966721
   1.1253453  15.1286483  19.8181593  -0.2248668  15.7408869  20.1232672
  44.7643518  44.1950560  57.5732994  44.6163797  44.4099808  56.6523504
  44.3426657  43.3438921  57.6913548   8.4758855  39.7409391  49.9134922
   8.8152314  38.8459897  49.9015474   9.2558098  40.2935219  49.8624659
  38.1271920  15.3418563  19.7457947  38.3254656  14.7901271  18.9891495
  38.0076632  14.7246049  20.4675545  70.6321812  54.3533897  66.8835974
  71.4698887  54.7419262  67.1356201  70.0066853  55.0758076  66.9392967
  75.0022833  77.9351042  41.9689430  75.4068748  77.0688056  42.0143952
  75.3799479  78.4148048  42.7061619  62.5925303  30.4256272  56.3460016
  63.0099964  30.2394342  55.5049992  61.6741896  30.1895547  56.2150145
  70.3931093  17.4464941  58.4950972  69.6104622  16.9190001  58.3355951
  71.1199808  16.8825948  58.2306957  76.3864040  26.5278339  59.0575886
  76.5063572  25.7427979  58.5232115  75.9772825  26.2095833  59.8623037
  24.0277045  68.0618499   4.9419798  24.0512030  67.2465323   5.4429163
  24.9131625  68.1521700   4.5897879  23.7162972  44.2586040  44.7190094
  23.5746194  44.4275475  45.6504679  23.5597802  43.3195543  44.6193981
  -0.2193164  18.2749844  48.1295729  -0.2881240  19.1649258  48.4752655
   0.5350209  18.3042967  47.5410604  42.1099997  13.8815963  54.2457724
  41.5823936  13.4821606  54.9373770  41.5799522  13.7856591  53.4545231
  75.9819118   1.4986562  52.9939556  75.6322281   2.1079206  53.6441469
  75.7355015   0.6330632  53.3199406   1.3547890  62.1690463  26.2569966
   1.6188424  61.2586020  26.3896622   1.1212342  62.4805449  27.1314396
  39.0040288  10.2647135   3.1614699  38.3927378   9.6056769   2.8324856
  39.2252001   9.9669478   4.0438809   2.8578556  19.4708800  67.2860765
   2.2192755  18.7811756  67.4670601   2.9368079  19.9470854  68.1126499
  18.5998528  76.6483830  11.4314427  19.3468373  76.2278174  11.8573155
  18.9709036  77.4209975  11.0052742  45.4224491  13.1935275  62.7591372
  45.1702833  13.9022338  62.1672106  44.5929289  12.8622568  63.1032038
  23.0440173  29.0989850  20.0909294  23.3183941  28.2501958  20.4380669
  23.4461817  29.1443274  19.2234959  44.1962719  14.8629189  69.0416527
  44.2209387  15.5677056  68.3944273  45.0123596  14.3821549  68.9034557
  84.6315670  29.1648126  67.3814106  84.4888306  28.2343221  67.2080660
  85.4086781  29.1879702  67.9397964   1.3094792  11.5936301  15.9546913
   1.7608032  10.7495234  15.9590687   1.0794291  11.7469809  16.8710961
  24.3885272  77.5368355  24.0513100  23.5907691  78.0638527  24.0966667
  25.0979560  78.1785749  24.0179600  72.1858780  75.1078342   5.2449240
  72.9809229  75.4358839   5.6650604  71.4739315  75.4169749   5.8050980
  36.1404214   2.7690241  31.0458626  36.7291579   2.0542357  31.2881436
  36.5657315   3.5557292  31.3870968  24.9740958  20.5501032  70.1648474
  25.5661082  20.7551765  70.8885145  25.5513287  20.4222035  69.4120693
  70.6689596  75.8867025  68.6710119  71.6124582  75.8357859  68.8241577
  70.5884075  76.1018085  67.7417803  66.5253210  40.8077478  46.9417191
  66.9109249  39.9449110  47.0935583  66.8494415  41.3454533  47.6642513
  86.1061764  13.1779575  65.6084108  85.2947044  13.4026957  65.1531649
  85.8906269  12.3899245  66.1071873  75.8748102  40.1935530  59.3971682
  75.9592962  39.4000888  58.8684845  76.1365891  40.9020996  58.8092375
  86.2911892  39.6476698  43.7915421  86.5444279  40.0213051  44.6356392
  86.2632751  38.7034678  43.9462566  31.4158854   8.0328438   1.2116970
  31.2233052   7.4677632   0.4634775  32.3654589   8.1504080   1.1849083
  79.4895077   3.4280211  25.8438373  78.6212206   3.3360147  26.2360692
  80.0666809   2.9260546  26.4192796  46.9862652  34.1051531  56.1717367
  47.9264688  34.1811228  56.3344622  46.6670895  35.0074625  56.1857367
   9.9335759  51.6294740  22.5149216  10.3140109  52.1661769  21.8196167
  10.0254100  50.7300244  22.2006191  60.3876591  41.6815329  65.1590872
  59.5007038  41.6231585  65.5142403  60.2954531  42.2174835  64.3713760
  11.5385708  17.7488921   7.0352425  12.3501525  18.0095408   6.5997805
  10.8778391  17.7700923   6.3429846  81.1124039  33.4548140  46.9752169
  81.0799503  32.5085235  46.8348122  80.1981735  33.7101388  47.0985889
  55.4649815  20.2113412  19.6682705  54.6764836  19.8930667  20.1078095
  56.1592087  19.6237157  19.9665512  66.5056562  69.2165518  57.6878929
  67.0347834  69.9967527  57.5219154  65.6969213  69.5532465  58.0736494
  70.7968378  44.1818428  60.3304720  70.0100660  44.7270107  60.3269339
  70.7876110  43.7424803  59.4801140  24.3934178  36.3378930  62.4731398
  25.3205442  36.4654446  62.6741314  24.1088295  35.6539154  63.0792856
   6.3495923  69.4841433  62.4808788   7.1779442  69.7587729  62.0876360
   6.5370846  68.6249161  62.8587770  56.8012142  38.1918645  63.4540272
  55.9206581  38.5591698  63.3769608  57.0828342  38.4282613  64.3377924
  39.9529099  20.5430102  57.4193335  40.6837749  20.4865861  56.8037987
  40.3232479  20.9688377  58.1924820  21.9373307  54.5798276  13.1930508
  21.4363703  54.9778912  13.9049591  22.4621377  53.9021943  13.6192192
  21.6918025  28.9809916   6.1380924  20.9043822  29.4226477   5.8200802
  21.5101323  28.0492995   6.0149111  64.2161894  36.0494280  42.4122858
  63.2634497  35.9940791  42.4861240  64.3781757  36.1521316  41.4744997
  61.5721020   0.0173876  17.3616089  62.1475300  -0.0075128  18.1261315
  62.1686444   0.0535653  16.6139092  21.9726920  30.4324055  54.3634701
  21.2485504  30.0427413  54.8533821  22.1010756  29.8453927  53.6183739
  71.5895653  42.3286819  28.0982256  71.8494368  43.2317448  28.2803798
  72.2454453  42.0112801  27.4774909   4.0705722  68.8688348  36.7337860
   4.1533988  68.8183473  35.7815136   3.1916421  68.5362481  36.9157280
  50.7756981  15.8987353  30.8622708  50.6353173  14.9845383  30.6157555
  51.6674599  15.9189437  31.2095131  68.1171314  10.2819966  47.8695631
  68.5221402  10.5243634  48.7023020  67.3432962   9.7762441  48.1178188
  56.8011999  60.2417994  57.4525547  56.2507391  59.9731159  58.1881046
  56.2092733  60.2485561  56.7003536  21.4004588  40.2180243  60.5343008
  21.7404795  39.3293858  60.6388855  22.1284580  40.7098579  60.1543665
  71.8788991  20.1874898  10.7193340  71.1273369  19.6647666  10.9988846
  71.6317544  20.5199216   9.8564114  68.6264229  77.1692801  63.2425451
  68.7593842  77.9542732  62.7111864  68.2239437  76.5401459  62.6438522
   6.0977881  68.3983301   7.5264801   6.6298001  67.8910683   8.1395735
   6.7327397  68.7968849   6.9313158  39.2142901  53.1394169   8.1441368
  38.6451754  53.9044831   8.0604614  39.4416365  52.9103158   7.2429957
   2.3042910  59.3993472   4.7296299   2.0731871  58.4745680   4.6424212
   3.1814902  59.3919240   5.1126398  67.8368998  37.8542304  67.3842096
  67.3005247  38.0654764  68.1483459  67.2528648  37.3568320  66.8117332
  30.0511012  -0.2528598  21.2775673  29.8032651   0.2808116  22.0325531
  30.9619078  -0.0146892  21.1045326  53.1735802  49.8630667  70.3763437
  52.9007292  50.7716799  70.2490520  52.4059486  49.3460178  70.1321316
  82.9489899  48.4800434  52.5095177  82.7994537  49.3240690  52.0835018
  82.0715523  48.1256294  52.6534796  14.9206579   1.2786271  64.2005539
  15.4696810   0.8293986  64.8432016  15.4334903   1.2598154  63.3925438
  53.9740357  32.8885672  16.4812721  54.7245297  33.4824774  16.4975704
  53.5075936  33.1140635  15.6763996   0.6442866  22.9402182   3.1225123
   0.3886137  23.8625310   3.1084694   1.4582762  22.9249547   3.6259188
  52.8486633  75.5747414  55.3973198  53.0195856  75.0661421  56.1899996
  52.5488949  76.4251995  55.7184029  45.9644508  63.8314915  64.0211535
  46.5630484  64.2036867  64.6687508  46.0237837  62.8856802  64.1558838
  68.7066364  12.0362461  32.3560357  67.7771759  11.8197536  32.4299788
  68.7499332  12.6625586  31.6334772  11.4866067  67.2994804  50.2168369
  12.1719933  66.6464281  50.3582764  11.7980481  68.0775499  50.6792688
  70.6993008  52.6381111  58.2121372  70.0448561  53.2566023  58.5367966
  70.1868200  51.9283295  57.8250885  31.2064219  18.0855215  45.4647636
  30.4983425  17.6079762  45.8969736  31.4835477  17.5097013  44.7521162
  34.1432436  80.2138878  56.6504908  34.6877821  79.8141720  55.9722996
  33.4000738  80.5836923  56.1738682  27.1103191  38.2362819  70.1199675
  26.2382698  37.8416204  70.1220560  27.0993423  38.8375044  69.3752241
  65.3735209  34.9886632  55.9760523  65.7804632  35.7059383  56.4620018
  64.5940113  35.3790474  55.5808353  35.0428247   4.4078696  43.4362221
  35.6968546   3.8218522  43.0553532  34.7972918   4.9915758  42.7184248
  35.7238603  21.8829823  62.0105696  36.6773558  21.8338799  61.9422293
  35.4178619  21.8722534  61.1036634  54.3882737   1.0654185   0.4103579
  54.0214619   0.5206559  -0.2860008  55.0805840   0.5280516   0.7952894
  42.4704790  32.9723358  55.3282309  42.5285387  32.5210357  56.1703634
  42.3896170  33.8981009  55.5576849  59.4167852  32.0444107  59.3381977
  60.1700830  32.4003744  59.8094320  59.3651915  31.1321115  59.6232939
  55.9013462  23.6115384  63.1897163  55.8584881  23.2122755  62.3208189
  56.6458941  23.1842732  63.6131811  69.1304111  34.0269518  59.0428782
  70.0530386  33.7933707  58.9407730  68.6838198  33.5503268  58.3431482
  82.5355339  49.3291283  56.5739822  82.3518944  50.2685452  56.5717745
  83.4055233  49.2542219  56.1818886  80.3819561  12.2815597  61.7126369
  81.3117981  12.4387515  61.5485668  80.0073624  13.1553292  61.8241739
  52.3633623  53.3271217  61.2983990  52.5540590  52.4349880  61.0086393
  53.0514717  53.8604259  60.9005022  56.3102198  61.6051292  63.2831049
  56.5218163  60.9862852  63.9820290  55.6923771  62.2167301  63.6836624
  37.2533307  24.6790860   5.1502432  36.8767962  24.5366833   4.2818131
  37.8988061  23.9792178   5.2491392   5.5795138   0.3936338  36.7112851
   5.6628506   0.9957742  37.4506879   6.4818280   0.2003335  36.4569402
  61.9090176  46.9462681  60.8508873  62.0116663  47.0749283  61.7938280
  61.2921381  47.6270103  60.5820227  29.5185790  41.6480992  25.8723225
  30.3746876  41.8747971  25.5091156  28.9174256  42.2830651  25.4828896
  48.6128990  49.7999238   1.5272631  49.0250031  49.9634867   2.3755850
  49.2299263  50.1568757   0.8884443  24.3266949  15.8398841   0.4300322
  23.7890086  15.3308985   1.0367026  25.2018246  15.8278201   0.8176293
  74.3279736  62.2964643  45.9108891  73.6901514  62.9576586  46.1796440
  73.7970345  61.5462206  45.6435455  12.8607838  18.1956433  39.9789929
  12.2118323  18.6825894  40.4869127  13.6778777  18.3067845  40.4650402
  39.0654509  64.6982573  32.5229801  39.7919314  64.8643540  31.9222607
  39.4801562  64.6064924  33.3807816  64.2223740  28.8606095  42.5471401
  63.8872576  28.1289005  43.0653381  64.7553635  29.3650627  43.1616974
  44.4998822  27.3393080  20.7492413  43.7293563  27.7224801  21.1684193
  45.2423319  27.7649424  21.1780037  66.1092901  32.3777747  56.1833048
  65.9410954  31.9287109  55.3548813  66.0541058  33.3085155  55.9667206
  10.7187924   6.9534943  10.6797852  10.9757599   7.0076344  11.6002525
  11.3126168   6.3040755  10.3031315  78.8048077  45.0992584  63.1851673
  78.5267115  45.9665680  63.4795713  79.5069551  44.8553419  63.7882614
   5.6713526  44.8576109   3.1946720   5.5861943  44.5289011   2.2997250
   4.7699063  44.9452983   3.5044159  58.0990267  33.0443573  64.0925932
  57.8668308  32.8697491  63.1805468  57.8964758  33.9714313  64.2180443
  57.3428361  41.0565989  11.8038620  56.8606584  40.5246912  11.1707653
  56.9167940  40.8764052  12.6418652  17.3848328  25.5789445   1.3455214
  16.6309485  25.5768035   0.7557024  17.7279648  26.4709494   1.2923969
  19.9491200  27.0515702  35.5430283  20.5721745  27.3468230  36.2070049
  20.4424796  27.0776818  34.7231831  24.2477227  60.0814486  63.2985973
  23.5596753  59.4355679  63.4587622  23.7945462  60.8169603  62.8864241
  20.6371634  67.3645042   6.3211407  19.8001282  67.5744985   6.7352785
  20.7734673  66.4367841   6.5134634  77.6694727  28.0272412  42.8590012
  78.0712032  27.6250172  42.0888996  77.4225283  28.9054561  42.5691891
  13.5818133  14.3405745   5.9309639  12.9439244  13.9538739   5.3311361
  13.0505356  14.7832463   6.5927853   0.1586915  16.0864687  36.1507916
   1.1068535  16.1353683  36.2725973  -0.0139427  15.1597703  35.9844899
  78.4629154  33.0574751  67.8175831  77.5586510  32.7607679  67.7151108
  78.6536312  32.9280710  68.7466192  74.8009968  45.6833649  23.8728547
  75.2271700  44.9800587  23.3829880  73.9545155  45.7973671  23.4407616
  86.1532116  69.2226458  67.0362091  86.4236069  69.4032526  67.9364872
  86.5470600  68.3741045  66.8334913  78.6545658  23.4957695  48.4104729
  78.0792332  24.1539025  48.0204868  79.0632343  23.0611157  47.6619434
  21.4922461   4.7858498  41.9551815  21.4144978   5.6465218  42.3668064
  20.7012210   4.3191025  42.2247376  59.9662781  59.8811865  48.3809185
  60.6238890  59.9772692  49.0697908  60.4333735  59.4564152  47.6614618
  73.4326935  17.1195662  68.0316210  73.9562082  17.2765172  68.8174534
  73.6788654  16.2378430  67.7519846  16.1807236  30.2946255  12.3699917
  15.7957348  29.6954320  11.7304768  17.1221432  30.1302645  12.3157467
  82.6029491  39.7993517  45.8283949  82.9916859  39.9306512  44.9635983
  82.0365715  39.0349531  45.7228422  57.8500175  12.0214510  61.3180399
  58.7048197  12.3024368  61.6445160  57.9580069  11.0878301  61.1365986
  67.8280973  36.5957856  54.3791103  67.1480322  36.9741416  53.8218069
  67.5050735  36.7231274  55.2711153  54.2916632  19.2535412  70.1116085
  54.1596699  19.8544288  69.3782949  53.6934376  18.5270798  69.9366474
  13.7464080   6.3863919   7.3058190  13.0455479   5.7840989   7.5553621
  13.3470139   7.2545502   7.3607363  60.6929588  42.8706074  69.2624521
  60.1081562  43.1010675  68.5405588  60.3602982  42.0317793  69.5817327
  71.7918730   2.5737226  31.8172765  71.2960052   2.9586571  31.0946608
  72.4049711   3.2603976  32.0796132  68.9872448  61.0728596  13.2045807
  68.3058135  61.6273640  13.5845913  69.3484871  61.5944909  12.4878945
  55.9711456  61.9317436  53.1302309  55.6231117  62.5973082  52.5368261
  55.3064156  61.2430143  53.1339598  82.8371088  70.6430672  21.5074028
  82.7662079  70.5833839  20.5547012  82.9909603  71.5722202  21.6783871
  42.3383284  61.5829849  39.8756146  43.2647610  61.6764593  40.0974607
  41.9958639  60.9732866  40.5292320  28.1049523  39.4560502  16.5560307
  27.9438958  39.6128247  17.4864639  28.1573043  40.3309510  16.1712708
   0.0308037  33.5364532  59.7670984   0.0084210  34.1877270  59.0659714
   0.8260155  33.0308509  59.5990419  33.3333684  48.9825630  19.1292357
  34.2259980  49.1138554  18.8095307  33.1223775  48.0808878  18.8869476
  13.6673224  66.7011452  69.6584988  14.5750797  66.6264915  69.9528408
  13.2499814  67.2650337  70.3097200  10.8092499  58.3538628  38.9467049
  10.6072331  58.9044952  39.7031593  10.5904103  58.8972235  38.1896710
  17.9617636  75.0031255   1.7075409  18.5662406  74.3368934   2.0346131
  17.1791117  74.9031876   2.2494806  77.7232790  47.2026062  52.8474569
  78.0605793  47.7028561  53.5905647  78.5060406  46.9090605  52.3812532
  86.7008686  53.9585829  46.4935827  87.1239281  53.2246685  46.0479164
  85.9190655  53.5775328  46.8933582  52.9828978  79.7105694  50.9068155
  52.5472307  80.5620766  50.9438181  53.8520813  79.9013662  50.5541754
  54.0976238  30.8295822  56.3418388  54.4919395  31.1994815  55.5519533
  53.1544971  30.9014249  56.1949110  33.8974604  19.7077868  26.1744751
  34.1652617  18.8063834  26.3533081  32.9781422  19.7414706  26.4389481
  35.4762587   7.1155331  17.9953732  34.6308503   7.3605559  17.6192249
  35.2633032   6.4511559  18.6507191   8.3981555  48.9911722  34.0517391
   7.4897807  48.7541996  33.8648476   8.3974354  49.2304580  34.9785484
  78.6301414  63.4847973   3.9986862  78.2048218  64.3422483   4.0092291
  78.4280292  63.1066440   4.8544802  41.8395233   2.9344428  53.8875580
  42.7334023   2.5953746  53.8401604  41.3741589   2.4821189  53.1839466
  81.9359875  27.9535723  57.0541906  81.4134789  27.2090840  57.3524475
  82.6770878  27.9837775  57.6592398   1.1624432  34.1747522   0.3024545
   1.4525605  34.9678612  -0.1481484   0.3430749  33.9384031  -0.1323033
  23.6104378   7.6080439  28.4807076  22.9484400   7.0010398  28.8116802
  23.6355862   8.3118031  29.1290344  62.7112279  10.0456069  11.2485089
  63.5234437   9.5496247  11.3512100  62.0920834   9.4170592  10.8772720
  42.0318827  15.2348111   7.4364771  41.6247306  14.4594643   7.0500912
  42.7296815  14.8872683   7.9919256  46.9505009  16.5081380   0.3304972
  46.6084561  16.9767687   1.0918297  46.5019593  16.9047854  -0.4163061
  42.5739622  47.3122931  65.7622147  41.8475485  47.0734978  66.3379955
  42.3271942  46.9605970  64.9068499  78.6633102   5.9854364  70.2174997
  79.1109220   6.7178487  69.7938871  78.4673540   6.3021707  71.0992670
  53.8088608  78.1425714  34.2837858  53.7172699  78.4443903  35.1875257
  54.4923258  78.7007666  33.9129519  76.6510567  28.9476464  18.2333531
  77.2318539  29.6474431  18.5320057  76.5262303  28.3945201  19.0045227
  84.6717970  59.5474456   1.5328230  84.1007034  58.8634931   1.8825306
  84.1939489  59.8970924   0.7807316  31.0013240  57.6957320  21.4111675
  30.5948775  58.5476671  21.5700401  30.7163279  57.4550472  20.5296482
  85.7793085   6.0232495  62.5485086  85.8660118   6.9554090  62.7479982
  86.0433905   5.9489965  61.6314602   7.1844102  55.7791901  66.8786430
   6.9551945  55.4171896  67.7345943   7.9464341  55.2713108  66.6000748
  25.9676879  77.6292847   6.2517800  26.3466303  78.0244897   5.4666437
  25.3846018  76.9470380   5.9189428  10.7932768  19.9916527  56.6490711
  10.0219140  19.5168326  56.9585480  11.4964471  19.7151921  57.2367443
  65.0476074  53.6814213  57.0481443  65.9936810  53.5369682  57.0307302
  64.7593260  53.4879923  56.1561203  50.5117989  46.9003487  64.3798923
  49.6517229  47.3204613  64.3823957  50.9148312  47.1846294  63.5595369
  57.6399598  25.0595353   1.8001475  57.4209294  25.6655285   2.5079836
  56.9212041  24.4274018   1.7950262  84.7012178  56.0506342   4.4309010
  84.4566576  55.7336413   5.3003468  85.0324909  55.2753173   3.9777197
  25.2057839  54.4646788  45.4765606  24.3365098  54.2293215  45.1522064
  25.6007004  53.6304855  45.7302999  40.1945829  64.7313309  29.9771214
  40.1565838  65.6706524  29.7969484  39.2781758  64.4628000  30.0428772
  27.9669079   9.9533961  20.8726086  28.6798701   9.3157838  20.9095062
  28.0624375  10.3702090  20.0162377   1.3688080  79.0895914  20.1214565
   1.2874930  79.8247074  20.7290997   1.6275256  78.3508848  20.6724705
  61.4520440  16.7518780  17.5086369  62.1138177  16.3033078  16.9822563
  61.9214711  17.0345423  18.2934727   8.6999362  64.0422319   5.6575550
   9.0235751  63.7666653   4.7999157   7.9133599  64.5522593   5.4641737
  10.9658330  65.4733633  40.3855099  10.3565447  65.8459281  41.0228504
  11.8223279  65.5353592  40.8083595  59.4508443  25.3775809  10.1278843
  59.5516190  25.2900670   9.1800369  58.7009034  25.9625075  10.2360119
  74.9937615  18.5585997  21.9467320  75.4703698  17.8327201  22.3494400
  75.4599175  18.7261078  21.1276688  81.8416214  76.2861729  28.4459734
  81.8951511  75.4306698  28.0199623  80.9068012  76.4162827  28.6053777
  53.4267983  24.6145747   5.3916992  53.5043606  25.5632947   5.2909388
  53.0408845  24.3169711   4.5678486  63.0170298  19.1835403  48.8553858
  63.3085299  19.8804665  49.4432259  63.1585073  19.5363748  47.9769087
  20.2568230  35.3198311   5.0690569  19.3579325  35.0054381   4.9721827
  20.7111964  34.6100686   5.5229439  61.7134237  76.9011736  44.7817278
  61.3623714  77.1266747  45.6432056  61.7041349  75.9442186  44.7623110
  61.0708189  81.6110611  30.7825446  60.3815079  81.0036850  31.0511851
  61.8389225  81.0564327  30.6460404  64.4996945   1.5334462  37.3298526
  65.3765385   1.9165467  37.3051763  64.2872421   1.4812993  38.2617211
  67.8654909  69.8403645  65.2245998  67.0723963  69.3044949  65.2155447
  67.6348448  70.6181383  64.7165680  69.8958731  72.1259737  66.8992376
  70.1179218  71.3742876  66.3497877  70.4575729  72.0343256  67.6688671
  77.4030209  42.8398991  63.1998825  77.9431629  43.6167765  63.0552006
  76.5047073  43.1704092  63.2054806  63.6262798  42.2505951  41.8024492
  64.1132975  42.0176077  42.5928736  63.4032011  41.4102268  41.4021397
  32.8952250   5.9846995  28.6549153  32.6892314   5.8791516  29.5837082
  32.6622090   6.8923161  28.4595455  21.3906941  18.3034632  10.7901825
  20.7284007  17.9415724  11.3789429  22.1602616  17.7509043  10.9268345
  56.9707553  63.2623409  15.3970589  57.6284520  63.4218572  16.0739865
  56.9314138  62.3089598  15.3212704  51.8277645  56.8818092  58.2602882
  51.7052364  56.6233063  59.1737413  51.0667801  56.5212345  57.8051901
  11.2171595  30.1338147  47.0640993  10.3307812  30.1448392  47.4252748
  11.4594500  31.0573148  46.9957638  69.4742775  64.0368032  50.7643509
  68.7341547  63.5425043  50.4120541  69.0820456  64.6337652  51.4015532
  21.2923941  13.2039330  37.5600495  21.8433509  12.9345105  38.2949604
  20.7468114  13.9060233  37.9145111  24.8579774  31.6701529  16.6130985
  24.2267165  30.9548447  16.5351929  24.4814429  32.2509358  17.2742714
  74.2851815  23.5183737  23.1557144  74.1791138  23.4433005  24.1040482
  73.7796006  22.7877638  22.7995743  10.6388705   4.5848321  62.8289604
  11.5912764   4.5834111  62.9246044  10.4030793   3.6592530  62.7661657
   6.8581860   1.4004563  51.0068750   5.9798567   1.1127614  50.7578802
   7.0279830   2.1605538  50.4504156  49.8425579  47.3154831  59.3764400
  50.0901222  48.2011938  59.1110039  50.4073477  47.1230841  60.1249266
  42.2811112   3.7442515  10.0780358  41.6270003   3.0657265  10.2453007
  42.7871117   3.4115956   9.3367256  45.3282246   5.4617379   2.7590479
  45.5546937   5.4418824   1.8292345  45.5347142   4.5819876   3.0746903
  74.0830374  67.8380060  52.7189064  73.6564970  67.9025221  53.5733891
  74.0976858  66.9000006  52.5287390  17.3674298  65.3462219  45.2049780
  17.6750088  66.2348318  45.0261068  16.6316033  65.2222395  44.6054602
  23.3391223  14.2583439   2.3905672  23.1459889  13.5112450   2.9569353
  22.4881396  14.6688197   2.2370495   7.8597300  13.7382936  41.1434078
   8.4368556  14.1643476  40.5096626   7.6390212  12.8988599  40.7398319
  37.1499157  58.1807041  65.8953428  37.3053241  57.6053715  66.6443872
  36.1982036  58.2770300  65.8607149  57.5066647   2.0022128  15.8942570
  57.5078759   1.4717457  15.0974907  56.5834031   2.2040436  16.0462250
  53.3395433  44.1443825  69.7099924  52.5244284  43.9942789  70.1888323
  53.2700300  45.0457382  69.3954229  28.0765233  23.1748126  24.9344887
  27.2016368  23.4762929  24.6897186  28.5295567  23.0518029  24.1003002
   5.3733349  61.2851429  19.6231341   5.8276654  62.1164131  19.4860196
   4.4440079  61.5129375  19.5968497  60.4089880  57.7297592  61.7333555
  61.2675476  57.3189259  61.8349409  60.2757692  58.2112885  62.5498199
  75.9989262  47.4307585  62.5965834  75.5333996  47.3438787  63.4284306
  76.9236231  47.3486757  62.8298903  20.4071221  40.5625126   1.8423189
  19.7811112  40.7873414   1.1539950  20.1805195  41.1410592   2.5704445
  14.9309922  49.9742985  39.1576982  14.1924191  50.3016186  38.6442757
  15.1453686  50.6921482  39.7534871  11.4254666  66.9420767  67.3224640
  11.5722562  67.3128605  66.4522886  11.3284493  67.7036953  67.8940868
  60.8666691   7.8244708  21.4109196  61.4944348   8.2272265  22.0108570
  61.1309991   6.9054387  21.3691582  30.3809485  45.2395699  28.2526840
  30.1142010  44.3217538  28.3044113  29.5946631  45.7312462  28.4898342
  57.5248418  25.6410668  20.7596840  57.9620347  24.8429177  20.4629387
  56.6900429  25.6451581  20.2913632  61.2488604  50.5441141  49.5718765
  61.1045742  49.9410009  48.8427258  61.1358786  51.4141178  49.1890383
  68.9934731  78.0002117  49.9315929  68.4714460  78.3061934  49.1899061
  69.3710852  77.1726847  49.6335268  48.5315561  57.4672127  41.4584541
  48.2817888  57.7785826  40.5884552  49.2623663  58.0302477  41.7136717
  83.0713367  79.7681284  27.5369740  83.7177277  79.1142845  27.8032398
  83.3992386  80.5908203  27.9001451  79.3489210  11.1029195  48.9590263
  78.4911720  10.9366178  49.3499804  79.5612614  10.2935552  48.4941864
  58.4115872  12.2306988  21.1732449  58.6961541  12.5532982  20.3181519
  58.1780800  11.3154290  21.0183396  66.3173620  78.4996627   7.5300183
  67.2063343  78.3088873   7.8292908  65.8767597  77.6498984   7.5310435
  21.1149583   0.8774207   2.9405274  21.6386542   1.1312697   2.1805681
  21.2847933  -0.0586059   3.0465807  68.2410512   0.5447266  33.6992611
  68.8465485  -0.1300123  34.0064015  67.3720536   0.1694033  33.8414444
  12.6470797   1.8463944  43.8990545  12.7450602   2.7774571  44.0984106
  11.8761771   1.5746354  44.3971443  43.5822138   5.5917285   5.8912815
  44.2263541   5.5590556   6.5985645  43.7831149   4.8290131   5.3489412
  13.6569541   1.2650918  68.1516838  13.0030005   0.9198617  67.5439072
  14.0433734   0.4876184  68.5547352  50.3040266  76.3175535  63.3365345
  49.6682978  76.1250782  64.0257645  51.0675955  76.6574097  63.8031101
  51.5659508  16.3369010  16.6354050  50.8363900  16.8835614  16.9271816
  51.6925034  16.5764163  15.7173409  80.7693698   2.4530622  15.8259072
  81.1250617   1.7084333  16.3109268  80.4329611   2.0719549  15.0148453
  28.1299576  18.9500401  19.6052612  28.1994328  18.0834649  20.0058235
  27.3439250  18.9001486  19.0613045  59.6379933  32.5821755  14.8229279
  60.0804696  32.7019189  15.6632294  60.3397641  32.3548958  14.2129387
  11.2797825  53.9729475  30.9386505  11.0199874  54.1038810  31.8505730
  10.4611008  53.7801288  30.4816975  63.9305115  79.8044395  61.5300512
  63.9418745  80.3316212  60.7311869  64.6253538  79.1588783  61.4009047
  53.0646691  10.1859687  21.4804329  53.2568726  10.9557507  20.9449734
  53.8578305  10.0507758  21.9989456  50.8333811  14.1626189  21.3732685
  50.7680020  13.8441060  22.2735466  51.7246518  13.9398406  21.1045136
  62.1882439  46.5362883  67.8406763  63.0431223  46.7307186  68.2248735
  62.3911524  46.0981369  67.0141888  42.9083237  52.3819039  14.4471325
  42.9884610  53.2316277  14.8804630  43.4015545  52.4808667  13.6327900
  57.6717806  55.8821392  40.5122662  58.0849314  55.6196833  39.6896768
  58.3160925  55.6616449  41.1849308  16.5439749  19.1203952  48.3839035
  16.9290590  19.0083504  47.5147724  15.6186414  19.2976296  48.2148457
  11.4786427  10.0419854  41.5164614  11.9124453   9.2465638  41.2076569
  11.4147704  10.5971002  40.7392883  59.6108723  80.4133892  52.2730923
  59.3697786  81.2903690  51.9747305  58.8216448  79.8889542  52.1377611
  59.3295273  25.8406422  14.1117062  60.1005158  25.9242175  13.5506214
  59.6609292  25.9876034  14.9976029  43.8264641   3.5977814  20.7547058
  43.1771979   2.9427788  21.0109390  44.6517691   3.2692073  21.1112847
  63.0041871   7.0458911  24.3088593  63.0098996   7.9927991  24.1689934
  62.0766530   6.8094227  24.3092598  18.5253430  60.2141333  61.8080378
  18.5406495  59.3402863  61.4176655  18.8533211  60.7905674  61.1178350
  59.6003613  14.1636346  25.2359833  59.9109349  14.6779511  24.4908299
  58.6464486  14.1824601  25.1590599  26.2838683  12.3957131   1.5999283
  25.6806359  12.2430918   2.3272862  26.8206963  11.6040394   1.5638317
  36.2803492  49.0965436  13.7357773  35.7869706  49.0077279  14.5512070
  37.1975073  49.0360139  14.0029682  67.6988268  73.4328985  67.7448130
  68.4296227  72.9228735  67.3954678  66.9192076  72.9381704  67.4924755
  40.6837123   2.2056531  40.8456278  41.3943236   2.6462792  40.3796768
  40.3100627   1.6055154  40.2002907  45.8419785  25.7979748  23.7345184
  45.6071887  24.8894570  23.5455574  46.6577181  25.9394238  23.2541050
  23.3371625  38.1136439   5.8529772  24.2075715  38.4337018   6.0900082
  22.9979739  38.7702725   5.2446808  56.9772038  25.1774333  16.0967888
  57.2263703  24.2915557  16.3601555  56.0743603  25.2725003  16.4002384
  22.8155327  66.5899849  47.4221134  23.2649755  65.7448673  47.4194956
  22.2778773  66.5777874  46.6302729  58.7670994  13.6917365  68.3286190
  59.3312693  14.4648385  68.3125353  58.2088900  13.8185012  69.0957975
  35.7759898  69.1407488   8.1768908  36.1143916  69.5564459   7.3838534
  36.0731738  68.2328318   8.1168856  58.3918476  40.3437757  50.2674007
  58.5631657  39.8249269  49.4814730  58.5898352  41.2436819  50.0081682
  43.1624508  41.6781282  56.9349432  42.6542187  40.8796406  57.0775700
  42.5997639  42.2255754  56.3872957  58.2224274  62.7613163  58.1345797
  57.9361773  62.5361490  59.0197897  57.6350784  62.2696066  57.5605869
   7.7246134  79.5605277  29.2258896   8.1269925  78.7933229  29.6329750
   7.1200745  79.1985296  28.5780300  42.8949580  32.6858113  37.3855652
  43.7646422  33.0808137  37.3234810  42.6362548  32.5321839  36.4768757
  61.0663685  19.4594882   0.8941759  60.2094159  19.8844550   0.9299626
  61.0076508  18.8645766   0.1466049  81.6240883  65.6927824  35.6678295
  80.7855606  66.1424828  35.5635524  82.2540379  66.2522411  35.2135086
  33.6467974  75.7230137   8.2539000  34.5541136  75.4348038   8.1541838
  33.5161059  75.7795547   9.2004456  44.6948084  34.2258046  33.8424744
  45.3903279  33.5873625  34.0002026  44.9447999  34.6550963  33.0242790
  25.4441493  76.3541792  27.8614296  26.2756293  76.7211102  27.5610222
  25.2274935  75.6870793  27.2100701  73.1719017  49.6436834  66.7134285
  73.0551910  48.7712145  66.3373899  72.3951483  50.1297092  66.4365339
  82.8576088  40.6795549  65.5886889  82.4823666  40.9867668  64.7634363
  83.6572170  41.1949158  65.6947708  21.1421046  43.2410977   1.2333264
  21.7343983  43.6995480   0.6373085  21.3046107  42.3128483   1.0654701
  37.9796832  63.9779399  46.4795841  38.9205973  64.0347146  46.3131680
  37.9006426  63.3469986  47.1950592  57.2288308  24.3868277  48.4321751
  58.1329999  24.6407292  48.2471146  56.9139084  25.0517008  49.0445389
  35.7214492   9.1114472  37.6713586  36.6237109   9.0730523  37.9886556
  35.3296702   9.8411702  38.1511974  13.9206633  14.2534325   1.7438425
  14.7681126  14.6901820   1.6583122  14.0833125  13.5319016   2.3514380
  32.6504359  25.9300397  15.2222027  31.7246565  25.7446978  15.3797211
  32.6507697  26.7599270  14.7452130  73.6384799  47.7991196   0.6854084
  72.8788640  47.9176565   1.2556389  73.6116435  46.8743416   0.4398468
  78.7320280  63.4434652  52.6357031  78.0365229  63.9985609  52.2830439
  78.2858753  62.6384163  52.8985262  67.8860078  -0.0781944  20.5732311
  68.5149274  -0.1342752  19.8538269  67.9815087   0.8142636  20.9058346
  39.1986847  37.8113341  67.6626205  39.0691137  36.8631124  67.6448202
  38.3365798  38.1668639  67.8784990  71.1037683  60.4737186  58.1374502
  70.7633448  60.8284998  58.9587116  71.9547272  60.1029539  58.3711958
  42.3597083  11.0898326   3.3829273  41.8468508  11.5866921   2.7454819
  42.5072846  10.2422974   2.9632343  37.4832425  44.6251176  14.5326389
  37.6927170  44.0760300  15.2881874  38.3189425  45.0207303  14.2850079
  63.3709495  78.7210916   1.4042916  62.7735750  79.3690704   1.7777790
  64.2444221  79.0513156   1.6146053  35.2812657  39.9965356  29.1010727
  35.7203803  39.2745183  28.6515106  34.6756014  39.5687935  29.7064175
  21.1156544  19.2976687   7.8341021  20.1911101  19.2959044   7.5862183
  21.2369141  18.4775422   8.3125557   2.8382597  22.9596303   4.7929157
   2.8054914  22.5052331   5.6347479   2.8121814  23.8888571   5.0211395
  11.4747803  65.8014749  32.6271500  10.6530039  66.1971305  32.9176201
  12.1466153  66.4379428  32.8716530  36.1182818  27.9506991   6.5715088
  35.8458886  27.6338885   5.7103075  36.9037757  28.4695981   6.3983835
  75.0387526  26.7819786  45.5314350  74.7282648  26.0010767  45.0731516
  74.2487431  27.1671653  45.9105825  84.7170544  72.3430490  70.7746077
  84.8351860  73.2058811  71.1718464  84.3839073  72.5272894  69.8963690
  58.3024487  35.0033591  11.3310017  57.8242764  35.5182717  11.9809593
  57.9114995  34.1311047  11.3816704  71.0791764   6.8080065  49.5071854
  71.3388619   5.8917735  49.6036686  70.1983056   6.8477795  49.8796238
  46.9439063  25.3934548  13.0168118  46.0830197  25.8109448  13.0453266
  47.1547970  25.2165721  13.9335884  53.5272584  18.4902547  14.2543472
  52.9251370  17.7802775  14.0315975  53.6306462  18.4275887  15.2038826
  73.1871120  65.4725193  38.8413109  74.0862982  65.5857347  39.1493382
  73.1662790  64.5846842  38.4841694  77.6321683  38.1822846   7.2799744
  76.8181595  38.6655018   7.4218239  78.1363282  38.3218072   8.0815853
  53.5104546  28.2031891   5.8732523  52.6788411  27.7492068   5.7370390
  53.3253560  29.1148827   5.6478943  81.5229511  53.9109278  65.1422358
  81.5458488  54.5852613  65.8211899  80.6020260  53.6553001  65.0895119
  66.5899467  64.9919415  70.7456160  65.6373978  65.0853491  70.7328653
  66.9176912  65.8382320  70.4412985   0.2094309  62.9351376  28.7815727
   0.4519408  63.6951254  29.3105663   0.3653758  62.1846531  29.3548836
  66.3259077  37.3321104  63.3362865  66.1236620  36.9250202  64.1786718
  66.0601521  36.6818500  62.6860809  85.8557129  66.0915852  46.2521267
  86.0079002  66.7343378  46.9449043  85.9948826  65.2448273  46.6762352
  30.7022271  29.3181632  30.8423294  30.1720223  29.0333579  31.5866341
  31.3869652  28.6534760  30.7677426  38.2663577  11.5635919  63.9582539
  38.6506884  11.1580133  64.7354412  38.8736384  11.3480233  63.2504559
   1.6687108  36.7433310   9.1944045   2.5519467  37.0908403   9.0705055
   1.3251877  36.6402841   8.3069307  52.3228042  58.9960586   2.1658386
  52.9421584  58.8420795   2.8792252  52.1016662  59.9246501   2.2368874
  37.2495215  57.2584485  31.4174618  37.9839652  57.8584241  31.2876381
  37.3392337  56.9625412  32.3233475  53.1988811  74.5576906  65.6302977
  52.4399376  74.8336172  66.1442041  53.5941982  75.3756523  65.3288126
  45.7314429  16.3868115  26.2989487  44.9775347  16.9750044  26.3423790
  45.3855691  15.5822489  25.9125866  84.7633839  59.2286396  52.7518654
  85.3047848  59.7175169  52.1320963  83.8693142  59.3400908  52.4286747
  19.0596192  79.2800973  10.1095642  18.2432692  79.5200084   9.6711029
  19.7151559  79.8673748   9.7332539  11.0248511   6.0940026  60.4576778
  11.1710971   5.6035661  61.2665701  10.2222197   6.5896844  60.6198978
  86.5193367  71.9026756  43.6844921  85.7613945  72.4771309  43.7928867
  87.2064877  72.4747133  43.3426952   8.1835589  22.3476145   7.5506701
   7.4382195  22.6032803   8.0941214   7.7993760  22.1429846   6.6981711
  48.1888089  18.8350175   8.7870468  48.3703122  18.0218861   9.2583241
  47.2845683  19.0485451   9.0172495   4.4719983  70.8006859  67.5751591
   4.6074296  69.8721647  67.3861313   5.3065587  71.2142515  67.3544645
  21.6385930  64.2976950  54.3475022  21.9453757  65.0987147  54.7723354
  21.1293261  64.6044134  53.5972943  14.7941495  48.2486486  69.8784733
  15.0845242  48.6863422  70.6786823  14.2063332  48.8782120  69.4609165
  76.5289307  67.2171688  49.5624208  76.3931990  66.6878462  48.7765312
  75.8653116  67.9046440  49.5057201  23.8691888  17.0371316   5.8906140
  23.2735238  16.3100789   6.0717405  24.6730551  16.6175101   5.5841078
  30.3647750  48.1710903   9.2138161  31.0121482  48.4759884   9.8495735
  29.6733229  47.7775608   9.7460331  68.3056721  29.5571444  20.3492703
  68.0838093  29.7777817  19.4446530  68.9595399  30.2091715  20.6013645
  67.5062799  67.4139833  69.9734068  68.1419420  67.5257635  70.6802797
  67.7471209  68.0780697  69.3274832   5.6130791  49.8493147  37.9367089
   4.8378087  50.3589201  38.1722617   5.6270028  49.1292000  38.5671663
   4.8158686  21.4355420  48.8909721   4.8993580  20.5835580  48.4627390
   5.6832831  21.8315934  48.8074875  38.8218817   9.5323012   5.7223095
  38.8339839   8.5890505   5.8846630  39.4180998   9.8956988   6.3770594
  82.7607624   6.3936853  69.8988438  82.6598303   6.7638730  70.7757711
  83.6679928   6.5850591  69.6610451  80.0192205  19.3107843  28.9682388
  80.1139729  19.6189736  28.0669785  79.8918478  20.1083421  29.4819570
  61.4404631  46.6675138  46.0008335  60.7642269  46.3382959  45.4087591
  62.1873617  46.8532133  45.4317236  79.9612284  64.5272446  49.8685360
  80.2374744  65.4432058  49.8379469  79.0929699  64.5522356  50.2706957
  43.9551592  51.1238003  57.1079636  43.5220432  51.6795731  56.4600754
  43.5179377  50.2761507  57.0269728  36.4749186  -0.1219321  55.4253244
  36.1472743   0.7496118  55.6473351  36.3895362  -0.1745940  54.4733953
   7.3705006  58.6111879  63.8649893   7.7562714  59.4605970  64.0792704
   6.9869424  58.3078909  64.6878719  73.3480248  15.2778838   0.8419766
  74.2449841  14.9437878   0.8508124  73.0132374  15.0884459   1.7184796
  57.5215993  23.6186240  13.4636082  58.0153832  24.4378731  13.4988178
  57.3764882  23.3868191  14.3809094  69.8109898  12.8739712   0.6306328
  70.1460824  13.4438489  -0.0616012  68.9039788  12.6996539   0.3792586
  56.5199456  21.1064503  12.8706230  56.6847214  22.0451043  12.9600968
  56.1656842  21.0086415  11.9867863  24.1532311  43.0304120  13.3502926
  24.7247967  42.5797913  13.9719738  24.6680293  43.7800858  13.0516209
  10.7736207  61.5244627  53.6494827  11.4229203  60.8215952  53.6742401
   9.9404431  61.0871458  53.8250017  48.3408403  66.8005323  34.1339231
  48.0809879  65.9924507  34.5763159  48.9446354  66.5147591  33.4483600
  76.4314795  79.9911690  63.0292273  75.6753588  79.5560789  62.6352644
  76.2016010  80.9203529  63.0261755   0.9165669  28.0981326  54.5211887
   1.6937066  27.5765467  54.7217655   0.5816842  28.3676052  55.3764439
  73.8002769  71.5827607  16.9332470  74.1596834  70.7369350  16.6655983
  72.9399244  71.3732122  17.2967304  81.5757219  11.5937852  51.4514637
  80.6398098  11.4821481  51.2846231  81.8371145  10.7885217  51.8980646
  86.9548893  63.8246822  36.8584490  86.8914700  63.6957216  37.8047991
  86.1042309  64.1852903  36.6083241   5.6260300  70.0993156  59.7599792
   6.1832619  70.2712250  60.5190372   4.9512005  69.5049524  60.0879526
  17.2015954  50.2779150  67.5218821  16.4583684  50.6293821  68.0120945
  17.5767995  49.6132994  68.0995798  70.6314414  72.8937124  11.1267342
  71.5846293  72.9710792  11.0856213  70.3221076  73.3156131  10.3251518
  38.8438544  23.5638211  13.9619507  39.5015463  24.2495844  13.8461842
  38.7095389  23.2099030  13.0827870  36.0008273  11.3339780   2.8162779
  36.0601935  12.2576783   3.0601706  36.1591420  10.8600352   3.6326994
   8.9199448  65.5211878  42.2500277   8.3371735  66.2196350  42.5479937
   8.4308243  64.7148895  42.4139786  36.1523574  29.2524671  67.4952650
  35.7709735  28.6865377  66.8240643  36.3705580  30.0607823  67.0313168
  55.6138849  75.9090996  36.2643957  55.5692768  75.1444483  36.8384600
  54.7850513  75.8979082  35.7857108  20.4311848  71.9753075  50.0003004
  20.3119565  71.0406494  49.8317003  19.8333455  72.1665001  50.7229757
   6.5590558  47.3959515  30.8128990   7.2266565  47.9444287  30.4009403
   5.8115754  47.4399159  30.2166142  33.0914626  17.7239440   9.9783672
  33.1890711  17.8922103  10.9155907  32.3200640  17.1607516   9.9152054
  22.3013911  19.2874167  14.1931786  22.4845252  19.5733998  13.2982506
  21.3762459  19.4940064  14.3260636   1.4893620  79.4004367  27.5855793
   1.2357323  78.7401055  28.2304539   1.6495412  78.9029478  26.7836632
  67.9778004  35.6427741  41.7118788  67.6776075  36.5462875  41.8107748
  68.7026930  35.5620289  42.3317528  19.4213296  67.3862743  39.0690374
  19.0144635  67.1134424  38.2466912  19.7228432  66.5707016  39.4692397
  40.3504643  36.5445969   1.5048708  40.7640204  36.5238021   2.3678698
  39.7100243  35.8336184   1.5289892  23.6757359  49.1498444  11.5515198
  24.1993556  49.0157578  10.7615341  23.6447987  48.2882950  11.9674648
  51.9388852  14.4721005  18.4197869  51.1102852  14.0887520  18.7073578
  51.6823086  15.2195237  17.8796353   3.4119599   3.9736985  55.0590801
   2.4652283   3.8872670  54.9474478   3.7703364   3.1607007  54.7029400
   8.9170075  31.1424708  43.9497280   9.4346619  30.3538513  44.1120386
   8.1670952  30.8360052  43.4398842   4.7109223  44.3589020  40.6036520
   4.8639775  43.6898470  41.2708616   4.1779614  43.9190960  39.9412704
  35.9168952  11.3961457  46.0011911  36.3381236  10.7461881  46.5636444
  35.2959197  10.8916806  45.4756975  86.2641907  78.5600805  60.4302359
  86.5889835  79.3893337  60.0794029  86.7143631  77.8898001  59.9161386
  -0.0749833  11.2490987  48.6727333   0.3493827  10.9874009  49.4898367
   0.1946776  12.1583699  48.5433245  85.0168228  67.4513149  57.0698738
  84.4036198  67.5440216  57.7989960  85.7191563  66.9007921  57.4161053
  42.7731705  75.7484722  26.8067217  42.7961159  75.6512451  27.7586937
  42.1833229  75.0557327  26.5093613  51.3334696  80.4237388   9.7753395
  52.1359388  80.8938287  10.0018181  50.9772055  80.1388048  10.6168427
  39.5101206  41.4474248  65.6902552  40.3607981  41.8686151  65.5670452
  38.9863150  41.7432260  64.9457026   6.6991330  80.1675797  57.4426270
   7.1014786  80.3828144  56.6011906   6.2520886  79.3353462  57.2884512
  81.6159138  26.4241812  20.9690441  81.5450940  25.6382916  21.5108837
  81.0137353  27.0488570  21.3732495  80.2765450  27.9883645  18.5941567
  80.8147320  27.6640484  19.3162407  79.7158703  28.6536000  18.9933361
  59.1476489  58.8365460  12.8167236  59.4599133  59.7240520  12.6405001
  58.3708324  58.7420894  12.2654831  50.0095312  40.3107161   2.4642052
  50.5549113  40.1953286   1.6860832  49.5866482  39.4610296   2.5884451
  72.3656220  77.6021246  11.6860080  72.6884992  76.9943796  11.0207045
  71.4160545  77.4816442  11.6798270  45.1611567   3.1546509  27.7905750
  45.2624559   2.2030747  27.7688360  44.2701530   3.3079076  27.4761581
  53.2047646  56.7922877   7.9232325  52.5834481  56.1671732   7.5498308
  53.9055936  56.2480389   8.2822098  75.3681223  31.7932527  10.2223457
  74.5224516  32.1690379  10.4670109  75.2144329  30.8486317  10.2049412
  13.4962058   0.5584189  32.4366927  13.6325049   1.5020703  32.3519778
  14.1421008   0.2804815  33.0861568  77.7164070  14.8392223   0.4463925
  77.5852816  15.6151270   0.9913744  76.9429342  14.8085068  -0.1166569
  22.5558002  78.8948167  51.2489223  21.9120129  79.2927126  51.8349695
  23.3959921  79.0348736  51.6856050  49.7254269  57.4994348   3.1118883
  50.4121582  57.9817651   2.6514639  49.3456451  56.9278501   2.4445881
   4.5695401  10.1004148  65.2671003   5.2222634  10.4458690  65.8760643
   4.5887566  10.7063043  64.5263147  38.2448490  62.1549893  38.1218314
  37.5834330  62.1798790  38.8133073  38.8817127  62.8230740  38.3754110
  65.1622922  61.6341067  56.5307045  66.0485978  61.3217975  56.7127943
  64.7186990  61.6035343  57.3783636  77.4227516  28.2351039  15.7522263
  77.5968115  27.3066317  15.5977120  77.0860426  28.2699011  16.6475739
  41.8438776  62.7371288  45.9124804  42.5676973  63.1813217  46.3540792
  41.7506464  61.9074644  46.3806677  48.7839365  10.7984054  67.3411083
  48.3767271  10.2754784  66.6504860  48.6503744  10.2869356  68.1391001
  25.7728171   9.4502628  57.4226522  25.4302382   8.6383474  57.0489359
  26.6666389   9.2334473  57.6878071  73.7477255  52.5731754  53.5037470
  73.3852959  51.7069530  53.3179092  73.3294868  52.8370047  54.3233204
  24.3677163  22.9811049  50.4665613  24.8748565  23.7099767  50.8240366
  23.8686061  22.6480651  51.2123537  41.0563183  10.6721509  63.1566000
  41.0793543   9.7177386  63.2258701  40.7184505  10.8403623  62.2769547
  12.0976496   0.3505955  56.2795734  12.7610362   0.7122757  56.8672276
  12.4672425  -0.4815705  55.9843874  19.4061430  75.9066422  59.6477938
  19.3531855  75.0487144  60.0689697  18.6645706  75.9226275  59.0427780
  41.1633539  15.1142418  47.4062252  40.5706072  14.7091162  48.0392790
  41.1424494  14.5283604  46.6495609  34.3262649  12.5534129  69.2694664
  34.9450064  12.2747612  68.5943794  33.4875250  12.1844995  68.9926052
   1.3598235  62.4653877  51.8073797   0.4412230  62.1963442  51.8027639
   1.3320382  63.4097458  51.9611597  40.9263849   6.1480027  40.5144262
  41.5924358   6.6819048  40.0813532  41.0155249   5.2829552  40.1144505
  19.3052490  78.1213675  70.5360556  19.6490629  78.7517605  69.9031019
  19.8347576  78.2577459  71.3217115  25.6520510  20.7179809  52.3947859
  25.9422922  20.2569318  51.6077471  24.7164488  20.5247378  52.4542522
  80.9028418  71.5965224  69.1003656  80.8796413  72.0497400  68.2575798
  81.7340762  71.1219240  69.0942907  75.7899434  57.0019318  44.7738361
  75.6444104  57.8039385  44.2720079  75.0028176  56.9090582  45.3105307
   3.1194108  23.6508487  16.9262757   2.2832005  23.9798151  17.2560753
   3.5723298  24.4295786  16.6027416   2.8732848  13.6823964  55.1302099
   3.4830165  14.4201577  55.1172209   3.2038808  13.0865860  54.4579363
  83.7499149  79.2277698  52.1349049  84.5361431  79.0421850  52.6483583
  83.2533438  78.4096504  52.1530676  38.2846854  66.1098503   0.0353064
  38.5193650  66.9313000  -0.3964029  37.5277780  66.3319539   0.5775179
  53.3272648  63.0317425   3.5860743  54.2459679  62.7701735   3.5244478
  53.3182144  63.7196421   4.2516197  57.1332209  32.8625099  15.6728329
  57.9577558  32.7572869  15.1981701  57.3356668  33.4875564  16.3689388
  79.6109111  74.0299703  51.2973070  79.0419800  74.7873951  51.1599874
  79.0497286  73.3833594  51.7253256  53.3171082  36.4612794  60.9976673
  52.9280281  36.7197442  61.8331575  52.8090000  36.9359183  60.3398132
  44.7035789  26.8789411  52.8123093  45.4703808  27.4186778  52.6201296
  44.8426819  26.5760374  53.7095976  17.7602013  61.9697309  33.8017011
  18.4346540  61.4800096  34.2723608  17.0513256  61.3392402  33.6743879
  22.9763293  25.4848957  67.0374060  22.1993709  25.4689002  67.5962543
  22.7791595  26.1440444  66.3719130  16.4730978  31.8461752  70.9219503
  15.8892083  31.2436748  70.4611921  16.7873561  32.4421215  70.2420092
  79.0608446  42.8543256  10.7552494  78.2566015  43.3728992  10.7776417
  79.7195284  43.4161343  11.1635937  15.2277184   7.3990810  18.2543087
  15.9400284   7.4359524  17.6159620  15.6017411   6.9362926  19.0040863
  47.5538635  15.0384068  56.3451242  47.7534151  15.9228694  56.0383034
  47.3591089  15.1460910  57.2760916  22.3695286  81.0102804  42.1411848
  22.5459869  80.0846363  41.9730282  23.0459698  81.2735579  42.7651596
  45.3884506   8.7505263  32.4139810  44.6515894   8.6880833  33.0217385
  46.1353207   8.9820790  32.9660702  77.4276526  65.8278705  59.4884491
  77.8176362  65.8856131  58.6162043  76.7283745  66.4814747  59.4819069
  22.7472281  14.4246435  56.0859632  21.9672203  14.6930969  55.6004190
  23.4341383  14.3655407  55.4219627  54.2723227  11.4748120  40.3805685
  53.5818148  11.8751466  39.8522091  54.7487545  10.9148955  39.7675872
  53.2212496  17.5195253  55.1462746  52.5107765  17.0665956  54.6920538
  53.8314009  16.8236268  55.3905582  48.6559486  11.8169522  45.9561205
  48.9486551  11.4459479  46.7885351  47.7458191  11.5321434  45.8737993
   1.2085469  42.3551179  26.8876624   0.7135637  41.7336799  26.3537741
   2.1235211  42.1919847  26.6586661  76.8050234  48.9553301   7.7585138
  75.9583370  48.7577556   7.3581232  76.6210024  49.6707617   8.3672203
  52.9308176   0.2778985  43.9622021  53.0157518   1.2299613  44.0131378
  52.4290371   0.0401445  44.7418976  57.8828669  22.6895905  52.3723841
  58.4438419  21.9921756  52.7117252  58.3282423  23.4987783  52.6235628
  60.8173513  17.8805137  41.4193535  60.2007580  17.1499860  41.3706541
  60.9486723  18.0209923  42.3570395  55.4044334  38.6102082   8.4617294
  54.5782678  38.4560181   8.9198841  55.8589546  39.2588441   8.9992346
  16.6063321  15.0351572   1.3826311  17.1357155  14.8811901   0.6001487
  16.8801594  15.8989966   1.6909035  22.0608385  52.3956395  62.9050493
  21.9160469  51.6463424  62.3272800  22.4224575  53.0727006  62.3331642
  34.3312573  31.1781621  64.6821833  35.2261138  31.0818744  65.0080538
  34.4362092  31.4229488  63.7627792  26.7658353  15.0899911  33.0772710
  26.4339375  14.4647360  33.7215781  26.0568857  15.7244432  32.9719424
   4.9365943  27.2672115  20.5071987   4.0898125  27.6542471  20.2849354
   4.7713416  26.3245891  20.5268349  40.7827568  22.5324702  38.3746600
  40.7642651  21.7802620  37.7829885  40.3897190  23.2442331  37.8695416
  49.3307829  15.3263462   7.9678190  50.1677656  15.0195611   7.6191360
  49.1560555  16.1381257   7.4916714   9.6907170  74.7113652  57.5750971
   8.8461359  74.7422011  58.0245018  10.1582749  73.9883406  57.9932594
  54.7290461  10.6019496   2.3630156  54.3815724   9.8896764   2.8998245
  54.4069974  11.3986705   2.7846207  32.1020992  74.0502948  38.8479257
  32.9883440  73.8459350  39.1463184  32.2213848  74.4003195  37.9650402
  60.5839197  28.6438345   4.4642748  60.7503430  27.8481041   3.9589514
  60.1135413  29.2176221   3.8595070  51.0126162  20.4516435  61.0493088
  51.1390162  20.8173895  60.1738214  51.6328812  20.9291482  61.6002131
  65.4653311   7.2539771  42.1322107  66.0233927   6.9262272  42.8374624
  64.6823502   7.5780845  42.5773287   9.5467568  16.2580669  47.1265936
   9.5328141  15.3052485  47.0361853   9.1305257  16.4245188  47.9723358
  53.6701298   6.4585644  59.0780783  52.9657364   6.1113697  58.5307980
  53.8967609   7.2961438  58.6739397  53.8100958   3.9511326  38.0081224
  53.1718922   3.8219404  38.7097144  53.2894373   4.2508218  37.2629166
  75.1636354  61.3465761  27.8558983  75.9879105  61.8326448  27.8790440
  75.2305119  60.7987534  27.0738186  34.1162055  41.9975273   6.4237608
  33.2905333  42.4557780   6.5803112  34.5412200  41.9701547   7.2809900
  46.3769960  21.2173486  63.7499714  46.8283510  20.5980062  64.3234921
  45.5031633  21.3035631  64.1310358  21.0501011  53.4446789  32.4702454
  21.0033377  54.3051578  32.0535660  20.1386698  53.2184697  32.6556039
  26.8609047  16.8414533  41.3610220  27.3183179  17.6033640  41.0053587
  26.6833401  17.0727408  42.2727299  31.8898797  36.0678911  55.1332664
  31.0638332  35.7094526  54.8086119  32.0038748  35.6651092  55.9940815
  36.6837271  76.2233216  35.4341054  35.9264238  75.6878568  35.6707501
  37.3864325  75.9090830  36.0030437   3.8712876  54.5853947  17.9419388
   4.4882481  54.0774916  18.4688534   4.3535273  54.7919844  17.1413197
  76.6360800  56.5004800  12.6984085  75.8309881  57.0176946  12.7217259
  76.9859259  56.5617131  13.5872807  42.6588161  80.4459340  44.0780544
  43.1430681  80.1216800  44.8373890  41.7384871  80.3640697  44.3280935
  53.9519079  81.6978664  41.2261343  54.4132097  80.9922796  40.7727242
  54.5187243  82.4618073  41.1196280   4.2605932  45.4742528  60.0182247
   4.5871575  45.4053451  59.1210985   4.7541531  46.2013842  60.3975868
  72.3843622   4.2101726  55.7829618  72.3239708   4.5512274  56.6752958
  73.3100605   3.9936668  55.6714392  75.5994940   9.5950007  34.1784382
  74.6514177   9.6930903  34.0903664  75.8237839   8.8852328  33.5766435
  34.7985411  35.7490849  64.6293211  35.0369692  35.0843644  65.2754879
  35.3270316  36.5118289  64.8641586  59.4881153  11.0648167  69.3416595
  59.0669298  11.8457472  68.9825153  59.9116087  10.6532109  68.5883570
  85.1837294  61.9329094   2.6493038  85.8540527  61.8558072   3.3282389
  85.1850597  61.0806583   2.2135271  38.2642834  31.2984865   8.9002670
  37.4476813  30.8022700   8.8440432  38.9517323  30.6418632   8.7885107
  31.9054802  70.8544792  64.6246433  31.3741119  70.8643449  63.8285446
  32.6803787  70.3443016  64.3890858  30.8132434  15.3001940  68.2494402
  31.1388302  16.0141444  68.7976217  31.4800525  15.1961839  67.5706339
  85.9189704  25.7017303  52.1408033  86.6253066  25.5296969  51.5181255
  85.2393345  25.0672317  51.9133425  36.2523818  19.7790897  52.9357433
  36.8515754  20.0418496  53.6344242  36.7778850  19.2139053  52.3694897
  28.8408566   5.4458052  28.8556671  28.5212398   6.3426632  28.9542747
  29.4217300   5.4807466  28.0956697  61.4670277  15.1488864  42.8322124
  61.4841509  15.8973694  43.4286261  60.9734678  14.4779897  43.3039379
  41.1209011  18.7928236  55.5812931  41.0060453  17.8558326  55.7396841
  41.5435171  18.8407373  54.7237778  23.4761470  75.8665942   8.8525643
  23.4059279  75.6537937   7.9219641  22.6930087  76.3842081   9.0396513
  37.2112894  21.5432429  22.8503180  37.8703570  21.0105681  23.2954216
  36.3987541  21.3635421  23.3233166  49.2873001  20.0072026  29.0893841
  48.9945126  19.5457816  29.8752570  50.2363968  19.8833859  29.0785575
  52.8376961   0.1550115  39.1822314  52.7442646   0.9308606  39.7350073
  51.9780827  -0.2650144  39.2117143  45.2493572   5.8569217  35.8402514
  45.5004215   5.7244086  34.9261189  44.3703365   6.2331098  35.7950950
  85.5991013  54.2495991  66.7648411  85.1412518  54.9786926  66.3464785
  85.8949668  54.6024681  67.6039982  28.2926281  74.9467094  38.0966616
  28.8568361  74.8995323  37.3248625  27.4081524  74.8150654  37.7551818
  30.9361847  80.0018717  57.8516054  31.3057430  80.5215410  57.1377420
  31.3324841  79.1367293  57.7481270  25.1769965  80.1729821   1.7844309
  24.4260256  80.6440757   1.4233936  24.8077529  79.6336673   2.4837412
  47.8383589  17.0178318  49.1263723  47.8046131  16.5023553  48.3205366
  47.0022058  16.8424976  49.5580435  16.7621606  76.5363692   6.7492165
  17.1755593  76.2720727   7.5710930  15.8288710  76.3752245   6.8878855
  48.8801527   0.7200684  45.8265543  49.3593121  -0.0015397  46.2338877
  49.3265104   0.8630551  44.9919605  21.8280943  79.5151589  39.0572548
  22.2887905  78.7046278  38.8403893  21.4342173  79.3451906  39.9129438
  51.2106133  24.9361801  19.5186710  50.2704716  25.1039767  19.5835531
  51.4203882  24.4394231  20.3095317  48.0736685  12.4893785  61.2250090
  47.4497938  12.2292697  60.5472469  47.5269318  12.7636945  61.9612598
  20.5664976  71.9647695  32.2911763  21.3351114  72.0218010  31.7235351
  19.9087818  71.5165473  31.7594457  14.2950010   7.4982405  65.2597904
  14.0061128   7.8586179  64.4213963  15.2484608   7.5804305  65.2400351
  30.9446629  77.0060850  38.1941700  30.8885487  76.4719344  37.4018550
  30.0345953  77.1334655  38.4621000   9.0318291  19.2195223  19.9244465
   9.7768157  19.6938990  19.5554032   9.0319245  19.4573854  20.8516277
  59.4183111  36.8903470  17.6989126  59.0369511  37.0697165  16.8394804
  60.0558329  36.1948013  17.5376141  56.9786930  27.5029659  30.4175305
  56.4125919  27.9869747  29.8162842  57.6894474  28.1114697  30.6194830
  60.0119781   9.6063870  67.0123005  59.3209839   8.9472538  66.9466686
  60.0531864   9.9978822  66.1397934  61.8845892  38.9273977  64.1518927
  61.3202047  38.2753372  63.7365437  61.3493299  39.2939758  64.8557043
  43.2508091  66.7410897   2.0417990  43.8710336  66.1649774   1.5949740
  43.7982075  67.3027371   2.5905575  75.1259184  14.1613722  37.7259588
  74.3335342  13.7520635  38.0735660  75.8426714  13.6362278  38.0819273
  71.2599261  72.0062579  63.7317801  70.7515819  71.1976505  63.6687613
  70.9525294  72.5401295  62.9991674  84.6709061  10.0596428  31.8836188
  84.4555664   9.1269797  31.8852854  85.1243019  10.1992881  31.0522604
   1.6061116  31.0658312  45.0140572   0.7545663  31.3550830  45.3418303
   1.3972474  30.5042171  44.2675972   9.9815426  11.7494748   5.8786787
  10.6867013  11.2862656   5.4265513   9.2194852  11.1783145   5.7823672
  86.1047213  21.7689441   9.8900952  86.1193935  20.9484528   9.3973316
  86.2318985  21.5036093  10.8009495  29.8002481  20.4740763  58.2970810
  29.0524578  20.2076840  57.7622223  30.0105333  19.6989191  58.8177967
  50.9165096  16.7949975  53.1550598  50.7450676  15.8540833  53.1160593
  50.7087421  17.1129298  52.2764349  46.7290695  79.4293793  50.0730658
  47.3095043  79.7434165  49.3797350  47.1003349  78.5861517  50.3326082
  37.0780087   0.2876303  70.4826212  37.0623636   1.0122357  69.8573732
  36.6067004  -0.4193173  70.0417948  71.8484640  33.5207415  19.5435131
  71.6482830  34.2654133  18.9763927  72.0661306  33.9147329  20.3882742
   6.3047373   6.5256262  61.9335985   5.9764761   7.4102288  62.0946980
   6.4998579   6.1802185  62.8047228  73.4622478  43.7647200  66.6540575
  74.0213251  43.8803768  67.4223614  72.5950050  44.0474892  66.9441605
  85.7992275  68.2174684  34.2758441  86.5792997  67.7043343  34.4865823
  85.5622370  68.6424924  35.1001143  19.5711191  75.7268334  42.8822517
  19.0142639  75.4805822  43.6208344  19.9874743  76.5434308  43.1580210
  80.0869353  41.5468932  50.9933901  80.5116637  41.9284631  50.2251196
  80.3823311  40.6364633  51.0029316   3.7275550  26.1654854  32.1624279
   4.0936768  25.5911756  31.4898515   4.4159973  26.8095636  32.3280811
  42.2945070   2.4442022  43.0777502  42.9491520   1.8981901  42.6423883
  41.4721155   2.2288418  42.6378298  83.8138087  76.9275860  56.8574142
  84.5547087  76.5250642  56.4043427  83.9243491  76.6703356  57.7727461
  69.9219561   3.1406862  42.1124554  69.3298292   3.4403381  41.4226580
  69.5097494   2.3471481  42.4539423  44.6946390  77.7858133  49.2788124
  45.5470903  78.1929780  49.4330072  44.0810688  78.3139054  49.7895813
  16.0250037  53.2221888   2.4766792  16.7426531  53.0480109   1.8676867
  15.4270117  52.4839984   2.3595776  76.7781376  22.8595996  61.5000439
  76.4361417  23.7533545  61.5217733  76.0499238  22.3170757  61.8027067
  31.0734844  11.3488257  33.9172125  31.3020849  10.5342770  33.4694576
  31.3487673  11.2094581  34.8233175  46.2616996  17.8021096   5.2266277
  45.9984271  17.2000717   5.9226669  45.5047898  18.3757208   5.1070942
   9.7209771  63.7299860  52.1830416   9.6233018  63.1065012  52.9027319
  10.6497868  63.6892606  51.9552612  47.4676991  28.2296443  40.5720758
  48.2038975  27.6758480  40.3121710  47.8716278  29.0554881  40.8386374
  32.9082370  16.9771302  27.1558285  32.7525997  17.0287168  28.0988812
  33.3026171  16.1148226  27.0249796  53.7606382  23.7054944  54.2119789
  53.3716726  22.9307413  53.8061523  54.0415001  24.2468452  53.4742212
  38.8022828   9.7107041  33.5527778  38.8665295   9.9993813  32.6424098
  39.0693378   8.7917459  33.5320568  57.4622194  12.5694703   0.9863676
  57.2619264  11.7017602   1.3373579  57.6943008  13.0909346   1.7547669
  19.0554483  65.1220418  55.8604717  18.6186512  65.1981188  56.7087936
  19.9152143  64.7548164  56.0658455  81.5372889  41.8726305  15.4891266
  82.1250431  41.8863653  16.2444939  81.7871849  41.0853062  15.0054897
  59.2195511   1.8169047  44.5536327  58.9536667   1.8931337  45.4699993
  59.0759134   2.6902509  44.1891241  27.9573560  48.2108919   4.1512074
  28.5010296  48.7833141   4.6924843  27.7661311  48.7304013   3.3703245
  24.6147163  66.7473758  61.7868519  24.9754818  66.7648841  60.9004164
  23.9847715  67.4678815  61.8033361  41.5212345   4.1810435  49.0163565
  41.7566299   4.3997583  49.9180126  41.1417675   4.9868208  48.6657000
   6.1456435  52.9819964   0.4339804   6.0634177  53.1354736  -0.5072532
   5.3145783  53.2851468   0.7995857  54.4684593  52.6205693   4.0969338
  54.0626876  52.6781081   4.9619593  55.4039661  52.7366768   4.2630066
  74.7893822   5.4661381  62.9690456  75.6637763   5.7665914  62.7212667
  74.6352946   5.8597636  63.8278532  22.3961599  76.3163794  50.0352526
  22.2986563  75.6187857  50.6833935  22.4833735  77.1155585  50.5548096
   0.3007119  74.7451233   7.2328581   0.3470032  73.9073061   7.6934542
   0.6123154  74.5501064   6.3490595  16.1016186  71.2320794  51.5659714
  16.9144686  71.3845433  52.0479155  16.3779266  70.7862068  50.7652950
  82.7130752  16.4074886  56.9252205  83.2967644  15.9912837  56.2909412
  82.1697342  16.9956410  56.4007330  52.0041370   3.4097379  48.8535881
  52.9190063   3.6438838  49.0098619  51.8000031   3.7964952  48.0021286
  28.8460255  11.1420679  31.7851067  28.9753485  11.7123258  32.5429416
  28.1895089  10.5074036  32.0721936  65.2461004   6.1195338  39.7052383
  65.3859520   6.3833123  40.6146860  64.5023012   5.5181664  39.7419500
  59.0834188  23.4187412  59.0919542  60.0279665  23.4793139  59.2347527
  58.9846802  22.7346563  58.4297514  43.6208351  71.2135626  63.2774067
  43.9278706  70.8586574  62.4431372  42.6931913  71.3993240  63.1317806
  16.3740786  61.2343741  40.1594877  15.5889042  60.7031346  40.0271320
  16.2565239  61.6237975  41.0259581  60.2204720  49.3064253   6.4958347
  60.9980933  48.9654808   6.9377531  60.3829162  49.1447543   5.5664791
  83.1237356  78.2129716   1.3250841  82.4745838  77.5103043   1.3581528
  83.7730925  77.9094862   0.6906809  62.1005363  81.3331593  67.3320150
  62.4032415  80.5720481  67.8273058  61.9550724  81.0002431  66.4464426
  50.5775833   3.6072090  51.4328766  51.2526798   3.5868189  50.7545948
  50.1753664   4.4713005  51.3445711  26.6698783  68.1318306   6.5958132
  27.1078150  67.4047683   6.1532988  26.8688624  68.0026101   7.5231423
  78.5015965  25.1435065  70.1056767  79.1643476  25.8298111  70.0283480
  78.4232712  24.7854614  69.2214251  17.1882256  64.8566616  58.0793047
  17.4218233  65.0710405  58.9824724  17.1486433  63.9004255  58.0626774
  51.4081383  13.0228043  33.3794022  50.5506659  13.3120465  33.6913490
  51.6637707  12.3305333  33.9890265  63.8434760  66.5968464  13.7218918
  64.3931930  66.8670415  14.4574417  63.9715878  67.2798132  13.0635800
  21.6616106   9.6394384  29.6757174  22.0361328   9.8341167  30.5348277
  21.6549516   8.6834317  29.6283984  21.6216660  19.3145025  63.0830383
  20.6823969  19.2350817  63.2494736  21.7053032  19.2229974  62.1338987
  29.2221983  77.8160230  29.2396235  29.5050056  76.9176505  29.0688086
  29.9447926  78.2050080  29.7323489  42.9138422   7.1041721  37.0121074
  42.1818066   7.4836797  36.5259671  42.9394484   7.5987470  37.8312349
  56.3802831  32.1286695  22.0218434  56.0538618  32.8819381  22.5140442
  57.2546999  32.3911689  21.7342247  25.6464553  18.7706316  65.8576918
  26.2763023  19.4255733  66.1586523  25.9960985  17.9382324  66.1756420
  85.6705359  19.2556679  52.2385836  85.3248962  18.5888696  52.8320026
  85.2957734  20.0769567  52.5568104  10.9771621  22.1336055  38.6749315
  10.0906491  22.3947787  38.9241648  11.5311849  22.8573632  38.9672756
  21.9749498  32.6707864  49.2575979  22.6391530  32.0074701  49.4448757
  22.4684858  33.4864736  49.1721058  48.4698296   1.0541864  58.2570696
  48.5402060   0.1682760  58.6126566  49.2357254   1.5125762  58.6027765
  60.2773182  39.4756344  12.1512379  59.4847052  38.9891653  11.9246449
  60.9087412  38.8013375  12.4019589  78.2714558   9.6099406  43.6477995
  78.2144690  10.1014066  42.8283834  79.1243696   9.8481631  44.0111494
   1.4398759  34.8315780  27.3708309   0.6606190  34.3092321  27.1807064
   1.7924492  35.0577746  26.5101589  76.4055721  70.8302115  22.5517048
  75.8304207  70.6070994  23.2835831  77.0430462  70.1167892  22.5219311
  23.5283599  12.7275632  10.2107872  23.9932999  11.9921849  10.6098904
  22.7139363  12.3463605   9.8827233  20.4409402  25.3350149  27.0891155
  21.0413640  25.4305898  27.8284325  19.7824280  24.7110401  27.3944916
  66.4896584   8.2247472  66.9100428  66.4172745   8.3179361  67.8599405
  67.4298525   8.1473941  66.7479229  10.8838423  64.9622608  61.6761732
  11.5474661  64.3345297  61.9621563  11.3733538  65.6198622  61.1820364
  56.5849686  18.4971881  49.5774412  55.9941912  18.9874876  49.0057564
  56.3446522  18.7718153  50.4623461  43.1866837  12.0852840  63.8367987
  42.4394131  11.5831900  63.5116482  43.3635521  11.7178440  64.7027874
  75.3394175  16.8681455  54.4731855  74.4949579  17.2621095  54.6920729
  75.1164198  16.0146606  54.1016102  50.5224800   3.2437611  44.3273067
  49.7492027   3.8075203  44.3060970  50.2209139   2.4098948  43.9668131
  68.5024889  78.4023509  68.9391232  69.2507895  77.9993294  69.3794107
  67.8586634  77.6976473  68.8675833  15.6085372  13.5431528  16.8372643
  15.9735167  14.0694034  16.1258698  14.8859119  13.0626440  16.4333391
  72.2710896  21.4734674  43.8401175  71.5382624  20.9547973  43.5081863
  73.0475235  21.0599089  43.4628248  40.2105665  21.1115742  47.8431559
  39.5743704  20.9410977  47.1485901  40.9020472  21.6170025  47.4158096
  41.2639046  22.8199816  65.0060654  41.4872169  21.9001055  64.8639774
  40.6891298  23.0427861  64.2737913  75.1645660  14.4487727  30.4937887
  75.0330067  13.7845755  31.1703706  75.2813816  15.2653825  30.9793115
  38.3061934   0.5189167  29.9501109  37.7307224   0.0406117  30.5470085
  38.6468697  -0.1511659  29.3575215  19.2649674   9.5432216  47.5319529
  18.9017808   8.9207751  46.9019651  19.9527156   9.0536344  47.9831028
   6.2879794  56.8929146  59.0054096   6.6053813  57.6008617  58.4447827
   6.5546649  57.1487497  59.8883881  34.1451700  71.9607253  59.6697235
  33.2769306  71.7824758  59.3083048  34.1934975  71.4170826  60.4560757
  49.5942728  68.8834308  26.8398155  49.7084467  68.7019490  25.9069313
  50.1790683  69.6210121  27.0136513  51.3821833  60.5257879   5.2040590
  50.7212011  61.2133239   5.2854456  51.2758367  60.1957081   4.3118872
   8.2101529  46.4503883  27.2942127   7.6421397  45.8743857  26.7825379
   8.1849425  46.0869609  28.1793846  45.2725935   9.5806950  53.3906078
  44.9111605   8.7352031  53.1246328  45.8034515   9.3822569  54.1619968
  68.2012701  20.9439850  64.1879225  68.0389977  21.4228582  65.0006819
  68.8709831  20.3002501  64.4188404  43.2369041   2.3657838  47.8523827
  42.6503277   3.1198573  47.9118061  43.1233263   2.0438679  46.9581223
   4.6786690  10.3922892  69.8666525   3.9790345  10.3052044  69.2192221
   4.2703343  10.1426113  70.6956005   6.6022140   1.6774243  70.3173161
   5.7132071   1.5918294  69.9729729   6.8186951   2.6016933  70.1944590
  74.8313093  21.2723970  63.1378460  73.9391613  21.5573382  62.9400826
  74.7724962  20.3183103  63.1877708  10.9846783  23.8573742  46.4011765
  11.7464983  24.4323277  46.4739180  11.3445616  23.0180669  46.1143351
  16.1187275  71.8251790  34.9546647  16.5530594  72.1018744  34.1478014
  16.6917379  72.1382059  35.6545973  30.3217387  17.6527262  56.0121584
  31.0177493  17.3818147  55.4134893  29.9789715  18.4610212  55.6308413
  31.2628515  70.8050192  47.3169136  31.0996922  70.3746117  46.4776516
  30.9419878  71.6984607  47.1942663  32.1596193  32.3476791  58.1068707
  32.6322794  32.2404742  58.9322948  32.7745485  32.0467043  57.4379063
  65.8954327  47.5180285   4.6604695  65.7378165  47.0106982   3.8642277
  66.2539665  48.3487640   4.3481220  33.9074636  16.4131391  45.4317570
  33.1916165  16.8631017  44.9830627  34.6728635  16.9666076  45.2766180
  54.0575075   8.8980401  57.9335499  54.7275162   9.3649745  58.4328461
  54.0373325   9.3423390  57.0859528  19.4748196   8.7081549  17.1326412
  19.8879132   9.2893145  16.4940132  20.1570067   8.5442994  17.7837910
  85.8288900  78.8197635   5.9082760  84.9404041  78.6162351   6.2005152
  85.8344118  78.5884451   4.9794640  72.3018837  40.4591322  66.9390821
  72.8523493  41.1114073  66.5057755  72.3312330  39.6978879  66.3595295
  74.3455450  58.4951757  10.1188244  74.4838850  59.1146658   9.4023575
  75.2142326  58.3746790  10.5023541  75.3104067  10.7264888  65.4633331
  76.0589218  11.1724520  65.0670147  74.6714401  10.6547213  64.7542477
  32.2291231  22.2809482  43.0800629  32.8575492  22.9625559  43.3182287
  31.7249918  22.1300077  43.8796282  46.8486500   9.1203284  55.7319450
  47.7247906   9.4928271  55.8311987  46.9546461   8.1958073  55.9561253
  68.1060123  36.0127354  45.1537085  68.6655855  36.4327812  45.8069038
  68.7170935  35.6506848  44.5120478  62.1692578  50.5175440   1.8139853
  61.9955794  51.0795127   1.0588326  62.7852051  51.0184704   2.3486962
  68.0777407   4.5433068  47.1856356  68.9636230   4.8991802  47.1163464
  67.6310587   4.8580056  46.3997126  64.5741606   5.6547827  26.1422729
  64.0185165   6.0384738  25.4638410  64.3330860   4.7285101  26.1537862
   4.4913483  41.3713694  50.3152514   5.0512410  41.3755798  49.5388937
   3.7803555  41.9753981  50.1010847  71.6643047   9.5638168  57.4719572
  71.3636589  10.3646362  57.0423841  71.2436867   9.5807630  58.3316231
  72.6758814  31.4834189  39.4596529  72.2302723  32.0156550  40.1187325
  72.7258492  30.6109285  39.8501587  28.4154639  14.7707293   9.8696388
  28.4588418  15.3306649  10.6447663  27.8577265  14.0389893  10.1336731
  26.3343621  67.7414751  67.7282619  26.9743062  68.2096195  68.2644892
  25.7912064  67.2704172  68.3601761  30.0770338  79.9851590  43.7404060
  30.9778507  80.1008896  43.4381390  29.7148521  79.3136274  43.1623936
  59.4543648  25.1430845  42.8117275  58.7174940  25.4574537  42.2878695
  59.0589714  24.5471072  43.4478903  54.8374557  23.8016915  69.2589283
  55.4797173  24.4469714  68.9633894  55.0495005  23.6577439  70.1811790
  49.5464754   0.9129593  43.1440401  50.1105595   0.2450215  42.7542973
  48.8476133   1.0403404  42.5024796  68.9649916  23.1316090  51.9708776
  69.4057751  22.7879024  51.1938238  69.5096397  23.8679051  52.2491884
  72.7702133  76.5612482   2.9931273  72.8432075  76.1821459   2.1172346
  72.5900833  75.8138345   3.5633530  85.2716446  32.2228312  55.5298853
  86.1940384  32.3410869  55.7566690  85.1046753  31.2928271  55.6830025
  66.3551140  27.5934911  44.2607069  65.5084848  27.3452878  43.8894320
  66.7815256  26.7606425  44.4626093  60.7019186  27.5321937  49.1357660
  60.3423548  26.6491985  49.0505028  60.7155800  27.8726411  48.2412624
  26.3751063  21.4260743   1.7624106  26.6493115  21.7590068   2.6169266
  25.5160508  21.0352204   1.9220556  17.7310999  70.6968499  45.7076597
  17.3853882  71.2969697  46.3683939  18.5747774  70.4131807  46.0597563
  50.3387308  22.5536060  49.6287107  50.3837681  21.5977073  49.6072340
  50.5399227  22.8230619  48.7325287   4.4867898  51.5973902  30.2660275
   3.7474728  52.0143127  29.8235154   5.0111390  51.2248993  29.5571232
  49.2338371  58.9239788  60.1484585  49.6031666  59.1450787  59.2935038
  48.4639978  58.3921909  59.9465227  37.0996651  15.1985476   5.4442896
  37.4588380  15.9965775   5.8320727  37.7866349  14.5431206   5.5656208
  75.5478191  10.7990873  51.5310192  76.1870003  10.7435060  50.8206749
  75.4224825   9.8926526  51.8119049  10.6575482  51.9341158   6.6380419
  10.3939765  52.8397475   6.4749636  11.5248149  52.0051800   7.0368208
  78.5371057  74.8720811  17.0365490  78.0638353  74.0403985  17.0600094
  78.8818638  74.9765681  17.9233708  47.6470995  52.8307247  65.2746868
  46.7367983  52.5470209  65.3589249  47.6087141  53.5888481  64.6915865
  72.1607590  18.4174156  34.1022968  72.9773235  18.6937618  33.6862564
  72.4154186  18.1760991  34.9928832  14.3854134  42.5789769  28.2935490
  14.4356339  43.4543072  28.6776127  15.2629607  42.4190733  27.9463066
  61.0927153  43.1574774  58.2153797  61.8773460  43.5853910  57.8726387
  60.7966709  42.5927401  57.5014734  55.3130484  25.4648924  42.3956299
  56.0140228  25.4965377  41.7445803  54.5846748  25.0397801  41.9428778
  16.5311503   5.9342647  57.8638697  15.9811354   6.5030390  57.3251581
  15.9729314   5.6908333  58.6023569  75.9886877  60.2193318  14.0813030
  76.8362896  60.6498955  14.1927399  75.8138697  59.8114978  14.9294342
  16.7025764  80.2332965  40.4216909  16.2327250  80.1079152  39.5972228
  16.8948181  79.3460549  40.7251358   1.8312932  19.0693283  64.6354008
   2.2947312  19.0866721  65.4727507   2.4857617  18.7671685  64.0056372
  85.8156586  37.1992755  65.1558352  85.4273605  37.3079014  66.0239697
  85.1870632  36.6578960  64.6783352  12.9701560  65.9303187   0.3625979
  12.4505847  65.2034734   0.7060684  13.8744776  65.6195043   0.4053463
   1.1982339   6.4164876  35.9008646   0.9998696   7.3528050  35.8867097
   1.4268057   6.2338399  36.8122506  31.1263442  15.0831544  30.6673145
  32.0404220  14.8825800  30.4661536  31.1123514  15.2111256  31.6158199
  58.9736128  11.3173187  48.3343077  59.9221230  11.2124753  48.4089041
  58.6163044  10.4781568  48.6247730  40.7335329  18.0077398  58.7148952
  40.3541470  18.4928620  57.9821205  39.9777961  17.6994717  59.2149544
  54.0631628  20.3723025  48.5944891  54.6296501  20.9209704  49.1369724
  54.0678167  20.7975340  47.7369404  47.1352776  72.0057715  43.6124420
  46.4996107  71.3960339  43.2377625  47.9737766  71.7392827  43.2354403
  44.7148085  20.3222752  47.1310425  45.5634975  20.1749158  47.5484610
  44.6910095  21.2642622  46.9627380  11.5652602  77.3035668   2.0624746
  12.4066060  77.6032566   1.7181601  11.5871232  77.5419758   2.9892506
  61.4313173  29.6622443  39.2745566  60.7633734  29.8019695  38.6033201
  61.8964100  30.4972053  39.3270969  35.8301973  38.9874101  50.2059031
  36.1080527  39.5973825  49.5225573  34.9659300  38.6885142  49.9231768
  83.1108665  24.4447899  15.5784523  83.6748886  25.2130365  15.6673694
  83.2119274  23.9762759  16.4070129  85.9394455   9.2170393  51.1127186
  86.8273926   9.3440020  50.7785654  85.6494713   8.3955312  50.7161379
  17.7008303  64.9914576  66.0154200  18.0013664  64.4115318  66.7151356
  18.1584652  65.8168341  66.1752892  86.7049591  51.4143430   0.7497658
  87.3848240  51.5585230   0.0915589  85.9338467  51.1558853   0.2449764
  40.9413202  81.2163336   3.4718460  40.8295591  80.2698010   3.5602623
  40.0588711  81.5724114   3.5753989  56.0743332   9.0630335  20.4663515
  56.9955444   9.1819161  20.6976008  55.9550667   9.5924836  19.6778774
   1.0146619  23.0753398  44.7467470   0.8081628  22.1486616  44.6248627
   1.8981934  23.1725740  44.3915749  58.3784866  38.4009719  47.9889345
  57.5012589  38.4556174  48.3680296  58.5925341  37.4683475  48.0139112
  75.7751369  32.8542447  23.6329627  76.2788951  33.5854673  23.2755089
  75.0230824  32.7721453  23.0465293  77.0739031  16.8215013  46.2316227
  77.7315998  16.3314939  45.7381010  76.2446737  16.6065049  45.8045530
  64.7566462  28.5796046  47.8932524  64.0839434  29.0505552  48.3850956
  64.3292570  27.7679658  47.6197386  78.3039474   7.5347340  49.8499584
  78.8504887   7.7060735  49.0830421  77.7284336   6.8194884  49.5789623
  68.9632940  33.8915396  61.7150068  68.9841127  32.9438376  61.8479013
  68.9948845  34.0008736  60.7645988  54.9695921  47.8618479  70.2306414
  54.4364262  48.6566305  70.2476978  55.8726692  48.1789780  70.2411270
  48.1062086  72.3336757  32.2251225  47.7042397  71.9937015  33.0245423
  47.8339632  71.7217959  31.5412259  67.6948738  45.7903385  67.9328918
  67.9789066  45.7335329  67.0205688  67.0454788  46.4935350  67.9382277
  16.0320965  67.7544691  70.5728741  16.6238752  68.1074383  71.2372820
  16.2675491  66.8288233  70.5098460  78.1168461   3.2207310  53.7014246
  77.1623993   3.1571996  53.6663914  78.3477068   2.8837687  54.5670938
  71.9157648   8.0686426  36.2043071  72.6928759   7.6867723  35.7962584
  71.4828396   7.3302180  36.6327214  76.2382174   3.1819609  32.4639654
  77.0997810   2.9359424  32.1272016  75.6207705   2.8267568  31.8245721
  55.3340094  63.2784198  10.5127205  54.9359552  62.4557398  10.7972969
  55.0149576  63.9281295  11.1390747  66.3595724   4.7979838  13.8622856
  66.3614798   5.1002997  14.7704887  67.2445250   4.4621485  13.7197852
  83.3245985  57.4398361   2.3421873  83.8260738  57.0078109   3.0336394
  82.4100964  57.2668503   2.5657858  60.9024096  31.9965720  44.8015881
  61.3266373  31.6990232  43.9967728  59.9655724  31.9169068  44.6220875
  43.6016989   6.6909480  68.6365891  43.4849167   7.2062671  69.4347382
  43.8056040   5.8092463  68.9484501  19.6581900  24.4703770  41.1402082
  19.5066714  23.7082767  40.5812120  19.8502171  25.1814437  40.5288649
  35.4049850  24.4898009  34.6756673  36.3216996  24.5763063  34.4141674
  35.4251170  24.5178580  35.6322432  32.1869223  63.3327244   5.1022114
  31.3370745  63.6215638   4.7697033  32.3022406  63.8184641   5.9189047
  57.0349789  39.1099381  57.7935934  57.5799990  39.1924524  57.0110512
  57.1942520  38.2184052  58.1034851  42.7089882  20.6023669  14.6633136
  42.6928234  21.5582681  14.6161890  42.6799440  20.4082227  15.6001687
  72.7218143  55.5220293  33.8599266  73.5932247  55.2349530  33.5870423
  72.8286306  55.7726072  34.7775520  84.0699100  56.4834452  38.2212281
  84.9649811  56.2110043  38.4233856  83.8164043  55.9390163  37.4758697
  -0.0531864   9.2024606  11.7960608  -0.1139926  10.0954556  11.4568043
   0.8701993   9.0953434  12.0243669  29.3728583  59.7143506   2.3092665
  29.5576518  60.4045521   1.6723217  29.6838706  58.9120184   1.8900265
  35.8523917   9.5324254  31.8427134  36.6566706   9.0489483  32.0314479
  35.6634283   9.3342245  30.9255219  13.4421342  48.6029749  16.7102303
  14.2607300  48.1971435  16.9955887  13.6875622  49.4979118  16.4755310
  73.6843491   0.0577720  19.5526707  74.2626810   0.6791312  19.1103208
  73.3837700   0.5239391  20.3327799  75.0511742  18.3943272  50.8060312
  74.8862028  17.8582180  50.0304031  75.9869146  18.5918736  50.7660437
  85.3683758  23.3621478  67.2299957  84.6829510  22.8701711  67.6820803
  85.6479263  22.7853894  66.5190601   4.3799115  27.8733492  23.5381770
   4.6570302  28.7881947  23.4882498   3.5523320  27.8472185  23.0578995
  61.7526817  22.3885155  57.9693556  62.6151800  22.7838898  58.0958843
  61.8038988  21.5500736  58.4282970  16.7311280  36.3440208   0.2626671
  16.5714877  35.5973534  -0.3145967  17.0946496  35.9574406   1.0593142
  64.6679926  25.7309079  33.8590622  63.8524342  25.9682274  34.3003988
  64.8205662  26.4434481  33.2383847  21.5962689  71.1822008   4.3878044
  22.0649569  70.4845546   4.8459019  21.3251393  71.7839168   5.0811018
  55.2001095  39.5877767  51.3981199  56.0490561  40.0215769  51.3124323
  54.5671988  40.3049755  51.4339638  16.0877896  15.4250598  48.9592218
  16.3128281  14.5566630  48.6253405  16.9114209  15.7699072  49.3041039
  68.5227442  25.0742078  57.2004271  68.3096027  25.1142812  58.1327343
  68.5460043  25.9892702  56.9205046  80.1872730   8.6031759  48.1736374
  79.7433853   8.2131159  47.4206114  81.0417271   8.1724042  48.1975460
  58.6922598   4.8824954  62.0681572  58.7148762   5.8025026  62.3314238
  57.9086494   4.5315027  62.4912310  31.6231632  36.4616394  47.5809240
  31.0653114  35.8442116  47.1078300  31.2608242  37.3220897  47.3698139
  34.6625154  63.5050891   3.6013140  34.8121838  64.4484137   3.5383000
  34.3436543  63.3722757   4.4940151  56.6831827  49.6004486  65.0910234
  56.2035179  49.0905857  64.4381905  57.6049995  49.4585991  64.8756933
  54.8409986   9.0885961  62.8177929  54.5634079   9.5528179  62.0280600
  55.6065178   9.5744628  63.1246185  85.2407925  66.3388465   3.0841841
  86.0271208  66.6148161   3.5551037  85.4101936  66.5796302   2.1733822
  78.5530464  80.0535844   4.3213286  78.4779350  80.2345775   5.2582564
  77.6480047  79.9842762   4.0174688  65.9911823  31.0076618  37.6915169
  65.6559134  30.6354403  38.5071635  65.5546761  31.8563890  37.6183319
  78.8538980  45.4419851  60.5659342  79.4497108  46.1455774  60.8232212
  78.6424494  44.9954176  61.3857508  71.4615576  59.7983478  14.2272343
  71.8810551  59.3472515  13.4945931  70.5257313  59.7554802  14.0307202
  74.0615463  31.8492794  35.2419400  74.3666267  32.7247953  35.4799056
  73.2634401  31.7258668  35.7557750  84.8223209  20.2116323  56.1620474
  85.1066589  19.3531311  55.8484268  84.0882397  20.0220895  56.7463684
  45.0697517  24.2997670  64.5305777  44.6638298  24.4060469  63.6702490
  45.0241899  23.3592129  64.7023630  70.2633524  14.1224313  59.8158741
  69.5942020  13.4380376  59.8074579  70.3421354  14.3916368  58.9006948
  77.9625607  38.2229662  40.8670425  77.9141235  38.4856987  39.9478841
  78.4621525  38.9214754  41.2898016  16.7867940  72.3157786   8.6510433
  17.6518719  72.1376513   8.2820620  16.2952464  71.5065240   8.5106100
  37.0785666  32.5646067  51.9356060  37.0299244  32.5485659  50.9797764
  36.1697578  32.4774289  52.2231770  15.1834226  11.7173207  60.4386330
  14.3141687  11.3461351  60.5897999  15.2805150  11.7197907  59.4863749
   2.2598061   5.7194922   1.2386574   3.1668911   5.6531117   0.9402908
   2.3015270   5.5301402   2.1760143  38.8865542  17.9037738  42.1477079
  38.2981682  18.6529696  42.2411823  39.2225790  17.9731548  41.2541151
  29.9289155  18.8550603  32.5176954  29.6622562  18.3030021  33.2527852
  30.7630467  19.2349172  32.7936792  15.5806058  79.8362278  13.6513199
  15.3500025  80.1730274  14.5171227  16.4145463  79.3854831  13.7839760
  36.4663744  42.3983574  59.0797758  36.3478804  42.9177713  58.2845402
  35.7606292  41.7523384  59.0512753  63.2787664  70.4003824  55.2123547
  63.5423716  69.6646226  54.6597242  64.1026552  70.8153976  55.4676723
  63.5367680  19.4249940  67.9994249  64.1828108  18.7269831  67.8915358
  63.0631018  19.1916394  68.7978077   0.7877446  66.3698769  57.7200556
   1.1607552  67.2192812  57.4842358   1.5148354  65.8911705  58.1180716
  82.2250168  57.3695289  11.5844406  82.7459518  57.8381680  10.9323467
  82.4822800  56.4531516  11.4829697  52.8839008  24.2084693   8.1881203
  53.0768530  24.2376600   7.2510256  52.5203888  25.0718366   8.3848156
  72.1960831  58.9505720  48.6745548  71.6239262  58.8268375  47.9172182
  71.7080879  58.5748911  49.4073248  53.9814568  32.9738402  63.9961243
  54.5286226  32.3301077  63.5461807  54.2760515  32.9441643  64.9063778
  43.9365244   1.7881221  31.2183356  44.4865656   2.5505435  31.0383344
  43.5114479   1.5967150  30.3823304  33.7131786  24.4067883  55.6653452
  32.7651119  24.4734788  55.7791758  33.8338304  23.6397886  55.1055384
  76.8639032  26.2608276  36.1566796  76.4347546  26.3473557  37.0079006
  77.6806967  26.7512392  36.2492813  31.6816481  78.1649489  45.5273056
  30.7351549  78.1025530  45.3988886  32.0567139  77.7791364  44.7356606
  80.4223864  49.7992449   0.4600538  80.6404488  49.7374348   1.3900341
  79.6532957  49.2388611   0.3566231  44.8709059   7.3120272  27.9427576
  44.7586918   8.2402122  27.7375436  44.2707348   6.8611598  27.3488331
  70.7282209  23.7534285  56.3274813  70.0353765  24.3920684  56.4958286
  71.5392780  24.2579627  56.3896132  69.6034813  18.4307456  67.7798796
  68.9020729  19.0737438  67.6758862  69.5127249  18.1209314  68.6809921
  62.5300558  78.5365830  67.9493284  62.8690584  78.3817668  68.8309956
  61.6955336  78.0682255  67.9279280  55.6698672  47.0749812   9.5879139
  55.4686038  47.9840885   9.8098339  54.8217742  46.6881506   9.3703522
  39.7847056  20.4103279  24.2440891  40.3621149  20.8670735  23.6323571
  39.9016404  19.4831502  24.0369654  64.7043085  17.9354882  70.3661633
  64.7088289  18.8274908  70.7133532  63.7770605  17.7286732  70.2492571
  26.1539500  29.9079643  48.7198414  26.0940306  30.8366703  48.9437737
  26.8699496  29.8600446  48.0863632  39.1051245   0.8981100   5.0307178
  38.9962888   0.2033534   5.6801021  39.2508316   0.4344776   4.2060685
  84.4945526  48.6026716  54.9152470  83.9682293  48.6902809  54.1205502
  85.3825665  48.8315105  54.6408415   6.8988038   7.5743264  38.1000495
   6.5259362   8.2049221  37.4839687   6.7608929   7.9700190  38.9606547
  45.7808256   3.7061232  43.1989765  45.2287769   4.1228482  43.8606548
  45.5891562   4.1836429  42.3918390  65.9747696  38.1777287  47.7583742
  66.7306519  38.3020997  48.3323145  65.9630823  37.2377491  47.5780058
  20.6675856  26.5773486  19.8306526  19.9577849  25.9932874  20.0976624
  21.2232297  26.6493987  20.6067337  59.9632025  24.8910546  48.4835529
  60.2847433  24.4370317  47.7046394  60.1928854  24.3119431  49.2102623
  45.4334545  30.0136304  70.6143808  44.7505045  29.4435191  70.2611303
  46.0702038  30.0930762  69.9041224  76.8241255  72.0644330   5.9674849
  76.0658876  71.9908904   6.5470471  76.4687483  72.4173020   5.1517500
   0.3592866  77.8950261  30.1878513   0.7878440  77.0662998  30.4018273
   0.6799595  78.5082482  30.8491863  51.0005713  45.6847286  61.3895988
  51.6060019  45.1879406  61.9399548  50.7134008  45.0592613  60.7243538
  74.7381973  62.2519684  65.4289675  75.4427576  62.4675035  66.0400105
  74.0060902  62.8043270  65.7030964  76.4983988  46.0405779  67.8289890
  75.9097147  45.4268217  68.2682991  77.3758650  45.7529068  68.0810404
  31.4055483  75.1870345   6.6547264  31.4581339  74.4572686   6.0375466
  32.2087996  75.1222347   7.1712603  25.9166567  41.6557940  10.2572598
  25.3721850  40.9412582  10.5877365  26.8143790  41.3394912  10.3586830
  81.0675144  24.5896077  35.2009201  81.5950489  24.3285704  35.9557748
  81.0172081  25.5435157  35.2622342  52.0067263  10.1539373  31.5982914
  52.6460314   9.5131510  31.9095993  51.9660616  10.8094478  32.2946286
  30.5524309  51.9187451  26.6201329  30.4946478  52.8088523  26.2728572
  29.7647484  51.8186046  27.1546984  56.0729265   4.6126625  19.6785295
  57.0010424   4.3786982  19.6686018  55.6528568   3.9054042  20.1679754
  81.2414742   8.8732666  65.3902912  81.4035606   9.0851754  66.3095570
  81.0708046   7.9314059  65.3881073  78.6806440  37.7495313  16.1128867
  79.4169283  37.5426245  15.5372941  79.0602446  37.7642298  16.9914782
  23.9338915  54.8888801  33.1418194  24.0092890  54.6757721  32.2116913
  24.1531699  54.0735899  33.5928787  51.7001629  16.9881117  46.2997675
  50.8294344  17.3709202  46.1924219  51.5331268  16.0831499  46.5631628
  18.6406994  34.0920448  34.6608782  18.6676312  33.5113955  33.9003825
  18.0547429  33.6525798  35.2771258  62.7241945  11.4131129  33.5391736
  62.4811697  11.3979256  34.4648838  61.9099855  11.6217828  33.0811858
  41.4681482  14.2725921  61.3873386  40.9405899  13.6834848  60.8480215
  40.9055471  14.4833958  62.1325016  72.3086929  22.5919580  62.8112841
  72.2666883  23.4105945  63.3055496  71.6067362  22.6662278  62.1647787
  11.8563653   7.0281446  43.1023312  12.6836110   7.4919331  42.9727030
  11.5540887   7.3139304  43.9644146  52.5056949  53.8666048  64.2334632
  52.4869433  54.8234572  64.2157654  52.1393004  53.6042073  63.3889900
   8.9376259  14.6199739  55.9805584   9.6337605  14.8960614  55.3844118
   8.7594414  13.7117398  55.7364416  19.1529219  61.1636327  40.3845181
  18.2077592  61.2406038  40.2542366  19.4968884  62.0281170  40.1596035
  22.6413823  26.3367534  59.8437643  22.2699071  26.8648601  59.1371298
  23.4727574  26.7638254  60.0503349  39.8448761  78.7846268  52.7979279
  40.6598242  78.6187489  53.2718182  39.8705156  79.7202686  52.5975561
  73.0583508  71.1115611  56.2380743  72.2487743  71.5535546  55.9822273
  73.1987042  71.3761915  57.1471977  57.4055719  14.3587935  70.7219505
  56.9948769  13.6150157  71.1628103  56.7366552  14.6770740  70.1157522
  85.6645203   4.3427238  44.9611664  85.0748062   3.9658868  44.3081236
  85.0828266   4.7581890  45.5977678  34.3793352  75.4347897  42.0249605
  33.7358196  75.4541636  42.7332973  35.2263887  75.4381735  42.4707413
  64.2874336  23.8649344  52.6081419  64.9754238  23.8516116  53.2735205
  64.3146324  24.7535014  52.2532558  57.6309967   6.8019044  45.6529284
  57.9683352   6.7157573  44.7612906  57.0368910   7.5513488  45.6128693
  73.2197420  52.7834474   5.5195393  73.4122889  53.7172030   5.6047358
  73.2756464  52.4448632   6.4131083  54.3260670  11.3068545  45.7142735
  55.0670338  11.9010901  45.8329582  54.0172052  11.4836478  44.8256922
  60.4088402  32.6383877  41.4403772  61.2456512  32.4500823  41.8652487
  59.7495079  32.3543429  42.0734930  25.3931959  72.9210664  45.9412193
  24.7252090  72.4051053  45.4897642  25.2900084  72.6910306  46.8646240
  80.3506224  81.4682458  13.5926689  79.5507090  81.9898914  13.6579003
  80.8044474  81.8204139  12.8269924  38.4936318   7.2044442  14.7736992
  38.6499486   8.1465266  14.8390831  39.2363534   6.8728802  14.2690529
  18.8729501  35.3973246  55.9560871  18.2117891  36.0504746  55.7269764
  19.6197236  35.6052732  55.3945541  32.8471589  17.3380911  48.0814266
  33.6033082  17.1393597  47.5291777  32.4269414  16.4903474  48.2262659
  72.3345463  64.8986291  25.0150551  71.8517487  64.1044830  25.2441181
  73.1972973  64.7771476  25.4114594  74.4089317  14.2158628  23.1984401
  74.5243073  13.4360170  23.7413597  74.0189934  14.8620403  23.7871957
  67.5353098  41.0106564  66.8408251  66.8369055  40.5070162  66.4227247
  67.8754950  41.5722990  66.1443615  84.5407200  38.2462454  39.0184784
  83.8202477  37.6442671  39.2049241  85.3142643  37.6849294  38.9656830
  42.1312721  77.3284341  32.0363379  41.5237196  77.9973439  31.7206264
  42.2200497  77.5080986  32.9723239  77.7796412  23.5251284  17.2622132
  77.1524096  22.8111482  17.1480131  78.5510588  23.1073022  17.6450551
  77.7857542  11.8228889  52.6135635  76.8399191  11.6830182  52.5681305
  78.1633711  10.9551501  52.4698019  49.6862364  34.5642710  68.0220842
  49.4141817  34.9089003  67.1715260  48.8672447  34.3300080  68.4586668
  83.0348492  12.0821095  32.7113175  83.4413815  11.3710690  32.2159553
  82.4198437  12.4815130  32.0961094  61.4804411   9.4995910  54.6634054
  62.4322796   9.3987715  54.6715832  61.2365341   9.3962216  53.7435913
  55.0982380  19.8072731  63.3256817  55.9819555  19.5639169  63.6014509
  54.8563337  20.5288291  63.9062595  67.8104591   6.1255729  56.5472269
  67.4758053   5.3790450  56.0503006  68.1883574   5.7378352  57.3365831
  57.7644587  32.1846700  30.5257654  58.7072802  32.0997977  30.3839278
  57.6743507  32.3051906  31.4710617  55.9280825  63.5343313  65.4397106
  55.2781677  64.1579962  65.1158524  56.7533684  64.0190172  65.4248285
  67.4983978  41.9038820  52.3930120  66.8918180  41.1652851  52.4455833
  68.2135582  41.5876579  51.8409443  40.1000834  28.6010146  45.9075117
  39.5655441  28.3759093  46.6689777  39.5128155  29.1033173  45.3426743
  82.6028912  66.4291476  22.8866162  83.5516779  66.3044666  22.8646053
  82.2869150  66.0042428  22.0892204   0.5395222  75.5659294  12.8900409
   0.0646496  74.9097061  12.3800409   1.1329270  75.9752703  12.2603297
  67.7333982  81.1134120  28.2702875  67.1108778  80.4602558  28.5898018
  68.5404547  80.6213726  28.1193399  83.2081509  30.3323531  59.6467304
  83.0047703  31.1166668  59.1371012  83.6768150  29.7642684  59.0352869
  62.7203703  61.2004900  35.0059104  62.1253824  60.6089401  34.5451617
  62.5453186  62.0609379  34.6248341  64.9354076  28.4253335  61.1805010
  65.7476521  27.9946566  60.9140396  65.1615858  28.8834000  61.9899797
  83.2653046  20.0181961  62.6312208  83.2282543  19.8267806  61.6940880
  84.2001438  20.0295448  62.8365898  56.6935062  54.2600298  56.3975620
  56.9412613  54.9805546  56.9769573  56.5152073  53.5281992  56.9882059
  51.4838204  31.4176152  22.5772347  52.3790440  31.5474770  22.2642674
  50.9562955  31.3676522  21.7800869  52.1620504  72.7587341  11.2193264
  52.0774023  73.3480619  10.4698147  53.0964343  72.7678798  11.4268650
  68.5905886  11.9140518  59.7420931  68.2420015  11.6278338  58.8978195
  67.8576756  11.8151450  60.3497839  23.5149424  50.2804135   5.9117951
  23.5987513  49.5085757   5.3519072  22.6990836  50.1402490   6.3923754
  61.3408279  23.1927800  55.4223347  62.0466948  23.8247681  55.5586243
  61.2943840  22.7046108  56.2443829   1.4537272  12.5727341   6.7609371
   1.6866264  12.5275204   7.6882710   1.8671403  13.3777831   6.4491381
  21.2622357  34.0011072  37.1637702  21.1631776  33.1523395  36.7324781
  20.5929280  34.0016198  37.8480601  26.9120257  71.0216497   6.4310326
  26.0010188  70.8714293   6.1785664  27.2719138  70.1444696   6.5624394
  63.3442633  78.9956330  44.9212708  63.5377352  79.4998764  44.1309990
  62.8232520  78.2549308  44.6112026   1.8973923  40.8298588  51.9969225
   1.8807507  41.6332197  52.5170851   2.8146172  40.7279587  51.7428827
  69.5763731  28.0830979  32.4774933  69.6743679  27.1676302  32.2156858
  69.9098778  28.1127787  33.3742237  78.5152094  59.1256617   2.1449627
  77.8723375  59.8232387   2.2727503  79.3552725  59.5812200   2.0902361
  61.1186981  47.0432997  57.4743319  60.1727247  47.1832323  57.5165272
  61.4878273  47.7345943  58.0239582   9.3224375  49.9899189   3.1632771
   9.4892876  49.3002401   3.8057198   9.9708407  50.6651603   3.3629049
   0.4459382   7.8296250  32.8915548   1.2655450   7.3352998  32.9025817
   0.5360413   8.4587681  33.6073017  62.7504396  57.6986074  30.1594234
  63.0899382  58.2971764  30.8247709  61.9307661  58.1004810  29.8715591
  45.0875854  35.5440378  67.9273558  44.5372915  34.7679448  67.8220558
  45.0342321  35.9918308  67.0830393  14.2684937  32.6507974  68.4575844
  13.4929562  33.2062244  68.3784199  13.9703942  31.8936229  68.9616156
  65.6043100  54.1168213  45.2301216  65.3189182  53.2975006  45.6344652
  66.5289068  53.9745235  45.0273800  72.5712776  24.8926950  43.4106541
  72.0079231  24.1564298  43.1723595  73.2760000  24.4984984  43.9246607
   6.4328099  31.6518998  42.0002651   6.1786938  30.7526398  41.7929268
   5.6028939  32.1169138  42.1062851  56.5608773  10.7523987  12.1802391
  55.9671483  10.0464509  11.9245781  56.2239155  11.0551760  13.0234589
  71.7329407  58.8081360  61.0289478  71.6543007  58.4986877  60.1265717
  71.1442661  58.2422256  61.5283823  27.0694638  32.3545980  41.4350080
  27.0096684  31.4599657  41.7701006  26.2378026  32.4971724  40.9830666
  52.6172256  25.3087306  52.0133686  53.1036520  24.7361302  51.4202833
  52.7566862  26.1890650  51.6643810  62.5454760  32.1065426  39.0704060
  61.7479467  32.6056647  39.2466211  63.1431103  32.7415347  38.6756301
  64.8394871  34.0963364  59.1759157  65.3225660  34.0150738  58.3535671
  64.3825006  34.9342752  59.1034508  72.5325394  22.9086065  52.4685574
  73.0925322  22.1420240  52.5910139  72.4729538  23.3031321  53.3386326
  78.5057497  10.9423649  41.2087250  79.3118429  10.6403339  40.7901287
  78.5646725  11.8973422  41.1808348   6.8821622   5.8830923  64.5300198
   6.3186742   6.4255118  65.0818253   7.4500275   5.4221684  65.1475239
  66.9128418  32.0737910  50.0781631  66.1061049  31.6629910  49.7672749
  67.5738239  31.3847208  50.0109148  38.3853650  37.3866343  63.8412428
  38.0365038  36.5007520  63.7425613  37.7675200  37.8234291  64.4275093
  79.0313292  44.7547770  68.3048916  78.8081074  43.8275719  68.3867216
  79.8965740  44.8292542  68.7074327  82.4888412  58.3658229   6.0182585
  81.5915148  58.6340521   5.8205380  83.0358259  59.0156160   5.5768837
  79.0482418  74.0329288   4.0689482  79.8701183  73.8327621   4.5169224
  79.0794126  74.9783348   3.9224257  48.5948563  62.2799397  69.4544888
  49.1795254  62.7146864  70.0752878  47.7296352  62.6412630  69.6470165
  65.6967354  65.1787138  20.6520772  65.0434113  64.4950008  20.8001804
  65.3854752  65.9230375  21.1671758  68.7425995  27.5262737  14.1966844
  68.8505983  26.8548107  13.5231066  67.8206491  27.7771258  14.1391623
  75.7350008  49.6559028   1.2490238  74.9358170  49.2237018   0.9477915
  76.3034193  48.9390592   1.5305676  57.9943562  34.4216490  54.3615055
  58.1554317  33.7245011  53.7256813  57.6635265  33.9673615  55.1363659
  67.4084711  24.5417094  39.2286706  68.3452892  24.3453765  39.2359948
  67.0101595  23.8274002  39.7260046  17.2951071  36.8350478  44.6607079
  16.7480128  37.4837320  45.1035656  17.6284354  36.2809293  45.3664459
  29.1120944  16.0120413  12.1862377  28.7090668  16.8740962  12.2895111
  29.6666083  15.9126303  12.9600968  66.8880987  53.7128210  64.2725372
  66.2480021  54.1992140  63.7529898  66.3898325  53.3858490  65.0215721
  15.8023143  11.8582082  66.9355679  16.4538646  12.2715914  66.3691473
  16.0299480  10.9285450  66.9236803  47.6339421   5.8635495  10.9781517
  47.8840146   6.4402888  11.7000069  48.3612094   5.9257243  10.3589214
   7.4473000  23.9406562  31.5870857   6.5051270  23.7841225  31.6507173
   7.6704026  23.6972070  30.6886482  79.0117884  29.6270967  57.4283791
  79.1369534  30.2164984  56.6846228  79.5108366  28.8430667  57.1992922
  61.1035156  43.0459690  42.8050661  62.0586681  42.9838037  42.7979136
  60.8283710  42.5983524  42.0049620  63.6501408  72.2847843  46.9474268
  63.7406492  71.6969538  47.6974249  64.5439053  72.5698996  46.7573500
  82.8157711  26.5410209  33.0492783  83.3878994  26.7961788  32.3255444
  82.8916550  25.5877018  33.0899453  86.0574572  59.6329199   6.2698044
  85.3454535  60.0485729   6.7561402  86.3697187  60.3136753   5.6737389
   2.8870106   1.6721334  33.0093408   3.1884480   1.1240804  32.2847676
   1.9459057   1.7669304  32.8625250  60.0614929  26.1756134  39.0640306
  60.5870342  26.9555902  39.2419910  60.6866598  25.4517698  39.1020393
  80.4871178  59.4575977  57.8745174  80.4298782  58.5321999  58.1124020
  79.6212053  59.8111963  58.0779600  37.9543161  27.4331021  51.4247942
  38.2672524  26.5347266  51.3188457  37.3875666  27.3999906  52.1954632
  69.7199965  68.6950874  55.0518131  69.6151781  69.3165493  55.7722521
  70.6520557  68.4772158  55.0571394  41.3988113   5.6856823  54.3050385
  41.7747974   4.8456785  54.0418673  40.4553270   5.5269891  54.3347788
  77.3873186  18.6390376  65.6160069  76.8505764  18.9870882  66.3280487
  76.9493771  17.8270566  65.3608084  74.2019033  19.9711037  42.4075079
  75.0662518  20.0432730  42.8123808  74.3807602  19.9197829  41.4685678
  12.6011746  55.3296875  11.5527310  11.7029612  55.1771902  11.8463196
  12.5668423  56.1756669  11.1062206  54.8300695  47.0715380  45.3179693
  54.7253656  47.1838760  44.3731689  54.7892046  47.9603863  45.6708336
  72.2277021  33.8870883  33.0238366  72.0363235  34.3477058  32.2068667
  73.1795073  33.7856245  33.0242920  81.6592884  14.5264649  44.7039604
  81.7260075  15.3756166  45.1406765  82.5428486  14.1616213  44.7534084
  73.2026672  36.8467999  55.0651693  73.4576178  37.4409652  54.3593359
  72.4253321  36.3985753  54.7318888  66.2832069  56.2237835  41.7661905
  66.8130302  56.2464285  40.9693241  65.9217024  55.3377485  41.7883539
  60.5089664  11.6607261  56.1141443  60.3757572  12.3322845  55.4451942
  60.8184052  10.8964443  55.6279802   5.1530266  45.7174826  16.6851163
   5.2039433  45.6130505  15.7349944   6.0633374  45.8150482  16.9644749
  46.8051147  17.1199429  41.1571264  46.5054750  17.9524088  40.7918167
  47.5554371  17.3543000  41.7033148  65.3950453  31.1319351  43.8537645
  66.2422132  30.8158755  44.1678429  65.5858040  31.9882965  43.4710312
  81.0192482  65.4813241   7.4415459  81.2672894  64.5854472   7.2132696
  81.0659973  65.9609197   6.6144814  82.5780392  24.2384171  70.9126377
  82.2452831  24.8633981  70.2685118  83.5297394  24.2833447  70.8205032
  63.4085417  33.9792466  62.2842932  63.4490252  34.3850279  63.1502819
  63.7714338  34.6390843  61.6934013  57.2194958  33.6772609  19.6092141
  57.0402050  34.3683410  18.9716458  56.3643789  33.2836413  19.7826171
  84.7744179  20.7346296  42.7911043  84.6517277  19.9010694  42.3368406
  83.8880444  21.0767722  42.9073715   8.2594395  44.2571259  65.5171490
   7.6911736  43.5144949  65.7216120   9.0995980  44.0331316  65.9173822
  60.3226280  62.0941830  30.9078336  59.6178150  61.8805790  31.5192604
  60.5680609  62.9924107  31.1295915  65.4254293  40.0485325  52.4003410
  64.5366907  40.3234577  52.6257133  65.3958178  39.0923405  52.4327517
  66.0181141   8.8533694  45.2948999  65.6102276   9.5317745  44.7567320
  66.0434914   9.2288655  46.1750078  77.4293470  48.6509275  44.3241739
  77.0909452  49.3254805  44.9129868  78.3670712  48.8335371  44.2645454
  55.0759840  18.5094249  67.2476196  55.8333349  17.9360437  67.1297693
  55.3794813  19.1856492  67.8532934  75.6916237  25.4334426  39.0081334
  75.4929972  24.5237875  39.2301822  75.4179955  25.9330058  39.7774148
  54.4955635  61.1894703  45.5079126  53.9177465  61.1142302  46.2673235
  54.6259022  62.1314240  45.3985167  17.8313065  15.3248513  68.9539289
  17.3900319  14.8780680  69.6763515  17.1411229  15.4751194  68.3079386
  67.3194456  17.9373515  32.5517893  67.8772688  18.6378527  32.8899646
  67.6529694  17.1430528  32.9690194   0.6112759  64.9264573  14.6349682
  -0.0301750  65.4830526  15.0765194   0.3199618  64.9019097  13.7235035
  79.6752453  34.5648456  51.0014296  80.5003452  34.1608000  50.7327366
  79.8780870  34.9935603  51.8328714  60.5546157  74.8790334  15.6680073
  60.8535592  74.4801377  14.8508515  60.8769290  74.2928337  16.3526405
  70.0455284  37.1750402  35.9062886  70.8056402  37.7463579  36.0161090
  70.4028082  36.2885141  35.9577727  42.0319748  51.7972851  62.7770281
  42.6320076  52.1360350  63.4414339  41.1607122  52.0180798  63.1062412
  58.8244772  26.7944932  56.7953157  58.2105303  26.6335368  57.5118303
  58.9520550  27.7431512  56.7977715   2.1527386  55.2946615  57.4507332
   1.2891293  55.3301048  57.0394659   2.0802498  54.5951748  58.1001139
  28.1626893  34.4912624  48.5009527  27.5206757  33.9625621  48.9747906
  28.4115601  35.1775599  49.1200590  71.3294840  24.9368238  46.6496706
  71.7911959  24.2197657  47.0842791  70.8835363  24.5218825  45.9113026
  74.4923115  16.0160434  45.3148365  74.5571852  15.2684760  44.7205591
  73.6744595  15.8730710  45.7911921  67.9502869  56.7451954  38.9781427
  67.2150469  56.6426420  38.3738756  68.0710697  57.6920271  39.0498924
  62.5546503  19.8179042  22.5582886  62.5829792  20.0680280  23.4817958
  63.4733868  19.7781146  22.2926307  79.1571045  70.6451464  48.7539339
  79.3563414  69.7431135  48.5031796  78.2833147  70.5984497  49.1419363
  42.5879717  39.4855428  54.5871067  42.2327614  40.3635025  54.7258282
  42.3383856  39.2652321  53.6896658  76.3629103  22.5482941  70.3191662
  77.1775198  22.0464635  70.2906704  76.3076496  22.9642963  69.4588661
  84.4857081   0.2670119   7.0707382  84.6609577  -0.4100540   7.7242722
  84.3946847   1.0728619   7.5792183  60.6698958  77.0502208  12.4648060
  60.3730671  77.8278850  12.9374184  61.0052149  77.3880886  11.6343655
   8.4813412  61.2585283  66.7833757   9.0571507  61.0855914  67.5282049
   8.9611896  60.9221650  66.0265160  83.7553310  14.0714383  52.6337528
  82.8329945  13.9151895  52.4309921  84.2188454  13.3462965  52.2147608
  22.4443818  59.2742395  65.0823498  22.5757981  58.3767509  65.3880882
  21.5137768  59.4434643  65.2292442  19.6590662  29.8727345  51.2167549
  20.3095770  30.3832459  50.7346296  19.0178144  29.6152306  50.5543947
  10.2257634  51.7975712  68.8195562  10.5994416  52.6788044  68.8239241
   9.6213914  51.7900133  69.5617962  23.6335946  38.8818693  62.3853016
  23.9180089  38.0422473  62.7463770  22.7599621  39.0168619  62.7524090
  57.1289539  33.8532877  67.1498394  57.4074984  34.2009878  66.3026381
  56.4908171  33.1739616  66.9318390  22.7093030  30.3525448  60.3331375
  23.1484223  31.0409284  59.8336029  23.4224702  29.8540926  60.7321072
  13.7617023  61.7911185  31.7587280  14.6736439  61.9445396  32.0058227
  13.2519300  62.2260965  32.4422193  64.0441022  14.0417168  10.4519333
  63.6077580  13.6737750   9.6835293  64.6248707  14.7152589  10.0979866
  72.5552926  15.6160853  13.1966938  71.9368062  15.0512860  13.6600651
  72.9575143  15.0447772  12.5424256  59.1218472  70.1975155  -0.0278434
  58.7431479  71.0004807   0.3300287  60.0676155  70.3249693   0.0463795
  48.6935186  29.6183968  61.0328865  48.1959057  29.5425463  60.2187252
  49.4162989  28.9992690  60.9303999  46.5361309  73.5805035  57.3483229
  45.9741449  73.3669090  56.6034889  46.0203552  73.3338404  58.1160212
  69.1558027  45.8875704  65.5386353  69.0977526  46.8429899  65.5448246
  69.4153166  45.6691790  64.6435404  66.5009499  61.1345720  44.5904779
  66.6639709  60.2092648  44.4075584  66.5634966  61.5621996  43.7363958
   7.1586991  38.1467175  46.8601131   6.7752648  38.3772898  47.7063084
   6.4360333  37.7572966  46.3678312  75.4906368  14.2633915  49.9234295
  75.8764601  15.1360977  49.8475647  76.1040545  13.6895955  49.4644022
  12.2962094  42.2653723  34.6977305  11.7563439  42.1432400  35.4786706
  13.1613160  42.4936247  35.0379062  70.3332035  70.4588793   0.6243338
  70.4174845  71.4109443   0.6762613  69.3935291  70.2967166   0.7076897
  63.5680866  54.5189047  47.9314995  63.7064934  53.8520813  47.2588778
  64.4070959  54.9756527  47.9921770  36.4746690  46.0135174  57.2963095
  35.5745554  46.0467720  56.9723892  37.0150900  46.1135197  56.5126133
  73.3626175  50.2919388  38.1265974  73.3950758  49.5068073  38.6731744
  74.1836977  50.7474041  38.3126473  18.6546803  24.9703336  20.6629467
  17.7225304  24.7962809  20.7934618  18.9317418  24.3198323  20.0177240
   6.0295392  18.2612050  26.1186028   5.5058575  18.4324634  25.3358817
   6.8236066  18.7809718  25.9939528  77.8907585  42.4780321  59.2760372
  77.2009897  43.1328201  59.3842125  78.1853342  42.5875759  58.3719063
  70.0594568  35.8867884  51.0514927  70.5494690  35.0834870  51.2270689
  69.2226839  35.5845737  50.6983471  65.7078934  43.0455685   8.6566222
  66.6154432  42.8179407   8.4547007  65.3181505  42.2268438   8.9632529
   9.3937398  30.3841710  69.4332361   9.3126012  30.6423903  70.3513718
   8.5048676  30.4547167  69.0851450  21.8079743  -0.0125625   8.0222668
  21.7567763   0.7418606   7.4353661  21.2472663  -0.6721761   7.6139177
  57.3512125   6.3187313  49.3229294  57.7414322   5.6620598  49.8997688
  57.8251266   7.1257931  49.5236492  68.0988367  76.0593546  28.1468415
  67.5909575  76.8422911  27.9339957  68.5272177  76.2699706  28.9765167
  84.3749714  47.4824572  41.7190504  85.1039600  47.1520662  42.2440863
  84.0103817  48.1985092  42.2392082  82.4119473  43.3395720  32.6121950
  82.0008564  42.5074482  32.8463221  83.3046532  43.2692099  32.9503465
  43.9564690   9.3168519   1.3996472  44.2569384   9.0180466   0.5413546
  43.0708632   8.9626382   1.4800467  70.1618147  40.2096796  46.2505770
  71.0027122  39.7588468  46.1739540  69.7700262  40.1353359  45.3803968
  59.1456175  31.3745117  25.2998829  59.1033745  32.2401309  24.8934937
  58.4032726  30.8986068  24.9274945  33.4947601  37.2801372  49.9219142
  32.9086414  37.8069478  50.4652057  32.9865662  37.0936673  49.1324840
  28.7419797  17.1254373  45.9420824  28.2010079  17.8826654  46.1660957
  28.2188512  16.6369605  45.3065109  67.6915789  30.1989484  44.5386314
  68.6239624  30.4005361  44.6176767  67.6530218  29.2425466  44.5321226
  76.5102911  29.9874401  60.8572674  77.1243668  30.1437879  61.5746927
  77.0613384  29.9422359  60.0758982  64.8593473  22.6884270  35.2656269
  65.2448702  23.5336328  35.0349164  65.1169586  22.1048665  34.5519567
  66.7842722  23.7599015  50.3007221  66.3902617  24.5656586  50.6349993
  67.4363518  23.5209537  50.9594488  81.9971943  24.2540145  37.8292847
  82.5306320  23.7219667  38.4197044  81.9124508  25.0961208  38.2763958
  48.9480734  45.7705736  57.0442724  49.4140768  46.1177444  57.8048944
  48.0219698  45.8680725  57.2657490  38.6388087  33.5829520  61.0389471
  38.2536077  33.6877513  60.1689625  39.5348024  33.9062858  60.9447002
  78.7133455  51.9220543  37.1431398  78.7230349  51.3709068  36.3605976
  78.6383343  51.3041782  37.8703523  50.4669046  39.5599270  58.9467001
  51.0826159  38.8344455  58.8427639  50.9632397  40.3348970  58.6834431
  68.6221075  21.6521716  57.4093819  67.7430964  21.9004035  57.6956511
  68.9335775  22.4071884  56.9102144  51.2550244  13.1205771  15.7467236
  51.6798672  13.6797116  16.3971867  50.4701600  13.6049197  15.4905476
  51.7204332  47.9861450  53.4809923  51.0424805  47.3255587  53.6232519
  52.2543716  47.6320744  52.7698135  84.0019608  43.7518167  34.9883628
  83.4287357  44.5002317  35.1542783  83.5146046  42.9983568  35.3215551
  86.4083378  66.9317936   5.8292593  86.3398497  67.8578042   6.0617413
  87.2456257  66.6530536   6.2000479  59.0446377  62.7761459  52.9048681
  58.2731342  62.3543167  53.2831192  58.9559174  62.6365042  51.9620705
  21.1883681  64.1497730  12.2444405  21.7781775  63.4220503  12.0475353
  20.5932610  63.8026761  12.9089703  26.4193671  79.6883081  23.4864582
  26.0835307  79.5177125  22.6064934  26.4855902  80.6418847  23.5368504
  26.1173670  70.1491355  17.4477448  25.8480971  69.2426704  17.5962128
  26.6160147  70.3821920  18.2308640   8.0527497  44.5517111  29.3891954
   8.8759995  44.0648079  29.4269252   7.8919793  44.8208189  30.2936101
  80.3759480  20.5420828  56.5527153  80.8604527  21.2367201  56.1066628
  79.4745827  20.6446481  56.2473440  18.1020388  13.9274094   4.8840107
  18.9995846  13.7976763   5.1902928  18.0481228  13.4158251   4.0767922
  18.2175310  51.4829207  23.7726593  17.7292212  51.6872383  24.5701814
  18.7202509  50.6989647  23.9938402  60.7411957  13.8178217  58.3631897
  60.6548977  13.1394637  57.6934004  60.5389738  14.6336770  57.9052353
  86.3438589  78.0118198  52.6313448  86.8520934  78.1783015  53.4252071
  86.6945369  78.6285002  51.9887257  55.4858589   8.2720417  42.5815821
  55.8999634   8.3341670  41.7208290  55.4279804   7.3319572  42.7522326
   1.4553261  24.2520952  61.5576267   1.7663670  24.2933393  60.6533098
   2.2308446  24.4395971  62.0864344  71.7134905  45.4536867  46.5607500
  71.7290020  45.5057526  47.5164080  72.6200151  45.6122446  46.2974977
  24.0795231  48.1162405  60.5651188  23.6272526  47.3952198  60.1271486
  23.4261609  48.4817171  61.1615896  65.5713272  33.0428910  23.4281707
  64.8695517  33.6920619  23.3800006  65.6456137  32.7038431  22.5361180
  83.8476658  44.6426344  41.1625195  83.0656910  44.3285990  41.6165304
  84.0625572  45.4674149  41.5981674  39.5233004  64.0679382  10.0820698
  39.7408431  64.2865990  10.9882130  39.4729178  64.9138855   9.6370186
  78.6810677  54.7648107  13.4719814  78.8335268  55.6455194  13.1294312
  79.4528095  54.2663811  13.2032551  71.6875267  21.2591672  54.8802710
  72.6443577  21.2406206  54.8611259  71.4737940  21.9701719  55.4844427
  75.4021263  46.3455343  65.2379036  74.4985914  46.3845539  65.5514860
  75.9150696  46.1172819  66.0131598  73.1926918  13.1186569  33.7680483
  73.2988834  12.6490486  34.5953488  73.7371302  12.6352501  33.1466460
  41.5255150  24.0024588   7.1671547  41.5697226  24.9531243   7.2696890
  42.0935378  23.6604283   7.8575100  57.0076752  27.4008131  13.2683253
  56.3559103  27.7398324  13.8819194  57.4858332  26.7391777  13.7681592
  81.8146801  17.1180224  45.4543257  81.5732670  17.8210235  44.8512173
  82.6750851  17.3730588  45.7873297  12.3514876   6.0872004   1.1680569
  12.0543513   6.5181992   0.3666939  13.3049569   6.0625193   1.0873379
  63.7493324  26.7832565  43.9971018  63.2390547  26.7264843  44.8049545
  63.2239342  26.3147187  43.3485174  52.0230722  33.2307768  62.0815992
  51.7820978  32.3202229  61.9111586  52.6256371  33.1841469  62.8238726
  14.3724196  50.8911108  13.7468876  13.4806101  50.8036392  13.4103455
  14.7384589  50.0086580  13.6875023  64.6751690  35.7731056  39.5698833
  63.9980745  36.1818933  39.0307498  65.4794836  36.2365627  39.3363976
  62.6964561  73.5095261   1.4259733  62.3030965  73.8472556   0.6213345
  63.0308287  74.2867135   1.8736376  17.0645940  49.7661734  49.1042662
  17.2479355  48.8826561  49.4236612  16.9321406  49.6577215  48.1624985
  55.6095171   9.3901855  29.9578190  55.0640821  10.1638055  29.8155403
  56.0742569   9.2692131  29.1298008  73.3058445   8.4367227  50.0407648
  72.5895254   7.8044461  49.9829674  73.8533918   8.1135892  50.7563114
  62.8122616  40.0906134  53.1934166  62.2624350  40.5617237  52.5673342
  62.2662687  39.3631983  53.4917307  22.1640771  70.5511497   1.6096892
  21.8887704  70.5892776   2.5256504  22.7703993  71.2852357   1.5110792
  59.4590569   9.9173200  45.6811810  58.7489796  10.0209057  45.0477028
  59.0502930  10.0894499  46.5294266  85.0538349  33.1982803  61.9355869
  85.7349586  33.5040450  61.3365841  85.1112652  32.2436118  61.8963099
  65.2332552  71.5055014  25.1286817  64.5066317  71.0528553  25.5568910
  65.0416906  72.4353130  25.2511001  25.1530402  64.1096710  11.6685738
  25.7119410  63.7256549  10.9930004  24.8078959  64.9079012  11.2686505
  76.2843084  32.4282336  43.3717537  77.0104218  32.3105836  43.9842463
  76.5339518  31.9154644  42.6030016  75.6812668  41.5547752  34.3822050
  76.1615372  41.5544987  33.5542107  75.1553345  42.3540354  34.3537617
  65.0051975  26.4215803  51.7215252  64.2122126  26.8281770  51.3721132
  65.7226658  26.9012237  51.3075113  76.1584330  50.7073641  30.5591130
  77.0348978  50.8830881  30.2168179  76.3065004  50.1445580  31.3190866
   4.8604775  53.0344200  50.7063437   4.1289902  53.3796692  50.1945305
   4.7637940  53.4416580  51.5671778  77.3107719  41.8866730  50.5191660
  78.2004976  41.6373396  50.7690716  77.2057247  42.7743912  50.8614492
  53.6085686  15.6311391   9.0403284  52.8909669  15.0068019   8.9331021
  53.2471165  16.4652608   8.7406124  71.3538074  35.9033489  62.0801783
  70.4115772  35.7349682  62.0892572  71.6412735  35.6096935  61.2156773
   9.5953656  51.8841124  56.5325546  10.5179406  51.6391182  56.6037130
   9.1297341  51.0497713  56.4751768  60.3391123  54.4149399  51.0862494
  59.4821835  54.4529295  50.6614447  60.2201843  53.8010120  51.8109465
   7.6373959  33.7377501   7.6083481   7.8580380  34.3611026   6.9162655
   7.0436288  34.2194819   8.1842041  73.6219740  29.8402715  47.0313072
  73.1639814  30.6732655  46.9190598  73.0444527  29.1929913  46.6266727
   6.4367390  38.3635426  68.4317636   5.7345963  38.2175207  69.0657282
   7.2165013  37.9979467  68.8495445  66.9034386  55.7955742  55.0053596
  67.5964880  55.1783085  55.2396679  66.6679668  56.2164593  55.8321857
  59.6385670  67.2148752  55.6336498  59.7973251  66.4661455  55.0588179
  59.0725946  66.8706083  56.3245821  49.6288333  10.7256577  30.0893273
  50.1774058  11.5085480  30.1381840  50.1307425  10.0524590  30.5488171
  24.5789719  30.0631213  52.6489925  25.3057576  29.9301052  52.0404482
  24.5983411  29.2930460  53.2171869  27.4721051   8.6692661  26.9245648
  27.5352288   8.5314089  27.8696799  27.4059582   9.6189666  26.8249345
   6.5931798  67.0314169  29.2885542   5.6398488  66.9555378  29.2481756
   6.9115544  66.3919687  28.6513925   9.4835282  39.0122509  27.7187443
   9.7415639  39.3144488  28.5895658  10.3111363  38.8765001  27.2573590
  58.5521016  36.6647599  15.0279774  57.7234444  36.4656708  14.5921768
  59.1761860  36.7853520  14.3122925   1.0419552  20.5664586  29.1853976
   0.8710759  19.9558877  28.4682918   1.2813800  20.0070809  29.9243212
  13.6489010  60.2690458  53.7099028  13.7875271  59.3226242  53.7458801
  14.3419934  60.5909014  53.1334877  84.0453148  35.3332829  11.0620999
  84.9982548  35.3336620  11.1523080  83.8808155  34.8366737  10.2605081
  66.1145687  31.2055564  53.4294939  66.5824509  32.0395947  53.4706974
  66.6916180  30.6318617  52.9253912  39.0959494  15.6017636  53.0563021
  39.6613734  15.8650636  52.3302221  38.6124365  14.8464822  52.7216291
   5.3933144  47.6744366  68.4198713   5.3663445  48.4888172  68.9221525
   4.5227338  47.2934008  68.5344839  20.9202958  63.8365936   0.9921988
  21.0033703  64.6793509   0.5460059  21.2031460  63.1928253   0.3427450
  32.4614947  63.3719991  19.6440567  32.4824088  62.4225854  19.5240368
  31.5348857  63.5773586  19.7683300  70.0928068  76.2726879  58.9503622
  70.7011366  76.2175417  58.2133913  70.1616144  77.1790314  59.2504263
  55.4527283  31.9051957  66.2900925  55.8591366  31.1666298  65.8366823
  54.8987913  31.5008569  66.9578457  50.9287589  70.3766535  11.8810620
  51.4323371  70.0195430  12.6125778  51.4117186  71.1599492  11.6175713
  65.0433922  58.6358881  52.8151178  65.5364323  58.2140541  52.1114111
  64.4297695  57.9645348  53.1134224  53.8189492   8.2472775  32.6612343
  53.5620961   7.5463936  33.2604088  54.7554001   8.3665536  32.8195728
   6.9668294  24.7281361  34.3508554   6.4563180  23.9833355  34.6684885
   7.3128319  24.4387436  33.5066009  59.1460705  80.6054115  55.7794046
  59.1015959  80.1585865  56.6247463  59.4192219  79.9256849  55.1632881
   5.5652905  63.5518217  57.2075319   5.0354958  62.9692650  57.7517557
   5.6649018  64.3456650  57.7330065  25.9724276  64.2815612   4.8698105
  25.0502436  64.3392132   5.1197733  25.9762232  63.7170290   4.0968146
  66.2598515  56.7353964  44.4925308  65.8631039  55.8997822  44.7386503
  66.4150286  56.6587925  43.5511017   6.6040612  31.1417174  37.7320385
   7.3481751  30.9172416  37.1733356   5.8839799  30.6066108  37.3983264
   7.2617150  68.8896942  47.4416494   7.8331185  68.7872314  46.6805840
   7.7999402  69.3509912  48.0848837  12.9477215  33.5794282  64.7630787
  13.3246995  33.1483150  63.9960957  12.9019452  32.8909302  65.4264832
  82.4547577  45.3288555  16.5159488  81.6841984  45.6649208  16.9737053
  82.6851273  46.0202217  15.8953261  79.2720222  41.5500832  61.2567043
  78.7387705  41.5518141  60.4618025  78.7051010  41.9328594  61.9262648
  37.4356937  80.5523396  64.2460680  37.3294044  79.6043921  64.3257141
  36.6879344  80.8337402  63.7189007  26.6211701  30.2976418  18.9062858
  26.6746998  29.4809198  19.4026041  25.9375859  30.1380801  18.2555246
  47.4091475  56.3937484  21.3739933  47.6278060  55.7908295  20.6634201
  47.6762622  55.9333025  22.1695198  12.6223660  35.8022714  31.8499398
  11.9506837  36.4536500  32.0518780  12.8910638  35.4627299  32.7036071
  59.5556777  63.8123606  24.2702545  60.1699488  63.1192611  24.5121445
  58.7279933  63.3563708  24.1177715   6.4358712  66.5437269  48.5651779
   6.6070748  67.4499750  48.3089685   6.8896771  66.0186481  47.9059458
  82.5178432  45.8197355  38.3880210  83.3061028  45.6167412  37.8843617
  82.5912094  45.2803898  39.1753960  29.6562331   3.3883618  43.1454515
  29.7045748   4.3309735  43.3047867  30.3575747   3.2153272  42.5174379
  15.3120272  68.9969157  28.3450665  15.5100529  68.0634426  28.4201874
  14.8873322  69.2190980  29.1736187  66.2618542  57.7665949  50.6970310
  66.2207317  58.6117935  50.2496147  66.2973738  57.1226406  49.9897194
  71.0404348  76.7553139  53.2410288  70.2175522  76.3062716  53.0474949
  70.9315681  77.6281166  52.8634071  82.0649147  12.8423584  57.2349548
  81.2796593  13.3896899  57.2409105  82.7604008  13.4246266  56.9291830
  45.1109109  11.1383126  17.6388897  44.6642909  10.3524945  17.3238625
  45.3503213  10.9317944  18.5423626  82.4952778  16.9417069  15.9998478
  81.6893181  16.4878008  16.2461056  83.1767068  16.5215132  16.5245594
  82.7052975  41.3769674  35.6047988  82.7106571  40.4201555  35.5779219
  81.8004322  41.6055346  35.8174181   0.6924821  66.9898653  66.3068008
   0.9353734  66.4353085  65.5653811   1.3205624  66.7619753  66.9922304
  68.5303483   2.7898047   8.9984478  68.9653096   3.2996533   9.6818890
  68.4911332   1.9008134   9.3511452  61.9360542   4.4377208  43.4026146
  61.0011768   4.6419883  43.3801317  62.1878147   4.5682397  44.3168449
  47.2516489  54.0867138  49.5808411  46.8486023  53.6162663  50.3105450
  46.9021463  54.9754000  49.6465588  74.5082760  55.1160002  39.0857863
  73.9753389  55.2372026  39.8716092  75.2166080  55.7534409  39.1761088
  78.2172005  56.7574822   5.4361548  78.1722538  55.9446345   5.9396280
  77.3028032  57.0043109   5.2976574  38.0393417  70.8250130  52.3127413
  38.8328083  71.3219036  52.5120926  38.1648691  70.5242468  51.4127350
  77.3361588  73.0956268  34.8707962  78.1139421  72.9299974  35.4035735
  76.6149187  72.7220869  35.3772664  22.6556525  18.1152127   0.4241432
  21.7435679  17.8268120   0.4581894  23.1642518  17.3047230   0.4500546
  51.2321664  62.4224472  37.7332878  51.1483956  61.4845276  37.5614643
  51.9481278  62.4871540  38.3653045  33.6450673  23.3504701  26.1929846
  33.2149220  23.2065010  25.3500819  34.4642258  23.7932611  25.9713173
  72.4645472  50.0714874  53.6715269  71.7555046  49.6120596  53.2216167
  72.8975582  49.3938303  54.1906738  70.9540653  21.7734194  50.4080439
  71.2517548  20.8854747  50.2101421  71.3754654  21.9873691  51.2404346
  14.0734141  75.9508704  23.7745155  13.8604634  76.7513822  23.2948651
  14.0586655  76.2122224  24.6952213  80.2205929   2.5449917  12.4557079
  79.3211827   2.2484324  12.5947727  80.1374325   3.4780953  12.2591461
   9.8825741  57.5357962  69.0380001  10.0257779  58.4769869  69.1374111
  10.7558919  57.1756268  68.8836575  68.2752466  12.3326719  43.7862635
  67.6335192  12.8028989  43.2539988  68.0557442  11.4088416  43.6654806
  79.2996979  51.9250345  62.7752209  79.5588970  52.0124102  61.8579340
  79.6951437  51.1006069  63.0583668   7.1402360  40.7431650  34.2249894
   7.0304967  41.1697006  33.3751321   7.9687119  40.2696037  34.1500926
  86.6992092  76.3732100  58.3626652  86.3528919  75.6823874  58.9275217
  86.6161442  76.0218620  57.4761629  17.1865369  48.4962511  62.8021860
  16.2896443  48.4668207  63.1352806  17.1036244  48.2858992  61.8720722
  17.9020119  61.2565470  69.6344328  17.4646760  61.7347765  70.3388882
  17.9874230  60.3635216  69.9682522   5.2848435  41.2871838  61.6602945
   4.9083138  42.0595407  62.0820999   4.6512414  41.0515594  60.9826088
  86.4620209   9.2006272  24.2057323  86.7857170   9.3676716  23.3205485
  85.8884716   8.4401077  24.1114783  72.3646927  17.1319377  27.2531605
  72.9395199  17.6359046  27.8292012  71.6818857  16.7936885  27.8324628
  14.7814084  50.5712986  36.3511491  14.6630383  51.4929771  36.1215186
  14.9971963  50.1437807  35.5223584  82.4979870  68.4426282   2.5647797
  81.6249077  68.7953971   2.3929800  82.8873293  68.3337878   1.6971411
  74.0250206  57.0387697  47.0316696  73.6378956  57.7227736  47.5780201
  73.7051964  56.2199783  47.4105167  64.2784023  44.5336103  54.1601849
  63.7426472  43.7874031  54.4292068  63.7895632  45.2999592  54.4601488
   2.0759337  41.7463070  32.8705849   2.5222819  42.5554015  33.1203236
   1.6429465  41.9571545  32.0433582  73.4523535  69.8166847  35.6566310
  73.6747456  69.4565678  36.5151691  74.1609001  69.5241833  35.0833631
   4.2272465  10.8609819  50.7733822   5.1782172  10.7677507  50.8299398
   4.0864747  11.7967462  50.6293011  75.8300829  39.1057396  55.0045729
  76.6637945  39.0856457  54.5347357  75.1782513  38.8652468  54.3461561
  67.9649782  46.7677689  53.0672073  67.4717236  45.9631872  52.9072618
  67.2967863  47.4212837  53.2737732  59.1954803  52.9294872  65.9266043
  59.3574095  53.3142614  65.0652313  58.2490587  52.7884960  65.9518671
  78.1472859   2.0085404  16.8575539  77.9983410   1.3547728  16.1744465
  79.0657792   2.2575400  16.7545857  35.6698498  28.2312701  39.8374619
  36.1241421  27.7366278  40.5195107  35.6863341  29.1368554  40.1471104
  61.1471176  19.5275223  61.8840981  60.7167435  18.6831200  61.7499542
  61.4829779  19.4856083  62.7794600  35.5533299  13.8129542   3.6164154
  34.7305092  13.8925002   4.0989794  36.2095961  14.1986487   4.1967453
   1.5298939  67.3636913  51.3948107   0.7388020  67.8928661  51.2929010
   2.1205903  67.6820517  50.7122040  10.8380128  57.3481560  42.9955149
  10.9471799  56.9606876  43.8639498  10.1379395  56.8358469  42.5909472
  28.6747012  12.2869513  12.2824539  28.3160052  11.5531848  12.7816071
  28.7252411  13.0043767  12.9141010   4.6000767  26.0465956  16.4065695
   4.2852307  26.8099332  15.9224021   5.3273202  25.7129598  15.8811677
  82.5886521  19.6808598  26.9696964  82.9245457  19.0124819  26.3724674
  81.9164929  20.1378319  26.4641251  83.9774799  22.8313756  39.0031695
  84.2730236  21.9216466  38.9674807  84.6701431  23.3256149  38.5647941
  66.0053873  35.7077312  65.9903383  66.7531061  35.2145052  65.6528807
  65.3282642  35.0468802  66.1352730  35.1524258  61.9350672  67.4685431
  34.7767067  61.2853718  66.8744373  35.6898427  61.4238644  68.0735970
  16.2796784  56.5768003  36.5525746  16.1115647  55.6788301  36.8382716
  17.0679856  56.5129709  36.0133743  86.0036469  52.5859547  64.8041010
  86.5362263  51.8353987  65.0672626  86.1500359  53.2361794  65.4911327
  78.3683300  17.4901199  57.9622173  78.0264473  16.9821894  58.6979866
  78.9798594  18.1086731  58.3617878   3.5843945  29.5899177  52.7908564
   4.3726636  29.8067260  52.2930098   3.8735486  29.5762181  53.7032318
  20.7370560  11.9240998  66.3786221  21.4324229  12.5815248  66.4008522
  20.2445548  12.0689820  67.1865129  12.0211125  81.1170864  49.0851545
  12.5110531  81.0454464  48.2659769  12.4867917  81.7876244  49.5849037
  74.2228270  73.2449341  45.2024984  74.8406696  72.5204134  45.3003311
  73.5656404  72.9179764  44.5881319  81.4204583   4.8354695   2.6176514
  82.2753415   5.1123307   2.9474367  81.4758668   3.8805983   2.5804772
  31.0433333  71.1124729   3.9641155  31.9460910  70.8140563   4.0745892
  30.7781737  71.4017867   4.8371662  86.7130756  74.6954203  67.9831886
  85.9628391  74.1241789  68.1476879  87.3159218  74.1572809  67.4701500
  13.6503602  34.4400644  57.8212595  13.5911751  34.5386553  58.7715292
  13.9004899  35.3083706  57.5054932   3.6235715  63.5128021  64.5699644
   3.1929398  62.8168201  64.0735817   4.4274140  63.6925936  64.0823698
  63.3273029  44.1163731  57.2676420  63.6785984  44.3075371  56.3980007
  63.5714149  44.8757315  57.7968025  40.9753117  34.2476723  11.8951191
  40.9992871  34.5069287  10.9740128  41.8909249  34.0854190  12.1221794
  40.1272583  73.5426664  61.6614628  40.1181650  73.3384657  60.7263422
  40.8074331  74.2097235  61.7543507  68.1945276  58.6954832  48.5001278
  67.8580809  58.4921980  47.6273680  68.1181097  59.6470165  48.5706377
  21.3313199  55.8003950  60.1851034  21.6794587  55.8455467  61.0756016
  21.7708684  55.0453234  59.7940874  60.5473948  44.2113590  47.4085760
  60.8213329  44.6305943  46.5928364  60.4761934  44.9310875  48.0356026
  13.4298516  47.0937014  44.8542833  13.7440491  46.8280983  43.9900112
  12.6183606  47.5698423  44.6782112  33.0181775  13.5419819   0.6467308
  32.7668175  13.6267684   1.5664400  33.0757508  12.5978158   0.5002274
  17.1112252  53.3230591  69.5179224  16.1855317  53.3121634  69.2745972
  17.2592831  54.2057371  69.8573065  84.6407318  37.7937126  67.6481915
  85.0623512  38.0087709  68.4801865  84.5099545  36.8461585  67.6838303
  74.8269320  47.0094061  70.9128475  75.6409550  46.6834402  70.5289888
  74.2066193  46.2881088  70.8071470  85.1932320  29.9627421   3.0516400
  85.8059773  29.2293046   2.9983105  85.3984151  30.5022690   2.2880663
  81.1833000  36.2242270  30.7225084  82.0989704  36.3322711  30.4653788
  81.2135983  35.6299877  31.4723039  10.8370790  36.6047070  11.4243473
  10.5425748  37.4860451  11.1946835  10.4847297  36.0462544  10.7313790
  86.4136028  43.1101704  54.8244286  87.2043133  43.3525896  55.3063345
  86.0651588  43.9414501  54.5022583  11.8765927  55.6357002  53.4342480
  11.3330460  55.2059269  54.0946198  11.2949277  55.7499647  52.6826859
  66.7948994  17.7333424  28.1997742  67.3896680  18.4775088  28.2930817
  67.3438725  17.0299695  27.8531708  67.8415442  42.7845955  48.3037472
  68.2759237  43.0842161  49.1023540  68.2926559  43.2473946  47.5976706
  75.9591961  77.4939632  37.2333097  75.6087923  78.2020855  37.7736926
  76.7993498  77.2774029  37.6376200  78.9035511  43.6684990  40.5489826
  78.9223051  44.3295908  39.8570013  78.7764740  44.1689682  41.3549709
   8.4094239  60.5606651  58.5305595   7.4966431  60.2975035  58.6480951
   8.3811856  61.2202215  57.8374386  13.0810738  26.6428280  58.6101627
  12.2446156  26.4654374  58.1799269  13.0758954  26.0806751  59.3848801
  86.4381299  38.6106322   2.6541485  85.8677468  39.1762421   3.1747069
  86.8246636  38.0092547   3.2906880  73.9770794  68.4025526  60.9118032
  73.3117819  67.8039980  61.2514257  74.7868013  67.8922176  60.9235191
  26.5795136  21.2710667  67.1569967  26.1158467  21.9841409  67.5960541
  27.4342251  21.6411948  66.9363165  48.0257933  73.4133862  11.8812050
  48.1935637  72.5847958  12.3301186  48.4379046  73.3088826  11.0236038
  61.6656208  40.5001879  46.3942242  62.1567488  41.1139917  46.9403648
  62.2415257  39.7401953  46.3106966  71.8421921  38.5234330  12.7562012
  72.7176652  38.6774752  13.1112446  71.9006047  37.6637004  12.3394550
  21.4521886  55.1585054  53.1210423  22.0388699  55.5698395  52.4863434
  21.9806100  55.0716829  53.9144278  83.4785366  31.6736174  39.2492461
  84.0470409  31.0267329  38.8314176  83.6131001  31.5402508  40.1875114
  61.0367680  16.8366790  36.6643929  61.3021612  16.4526677  35.8287311
  61.6740417  16.5015686  37.2951221   7.3231030  73.4302378  58.9687967
   7.8454972  72.6294613  58.9231253   7.0052434  73.4577084  59.8712635
   7.7028752  52.9773235  19.3788028   8.1765462  52.1976662  19.0889645
   7.9007340  53.6382484  18.7152827  53.3085999   5.9704754  40.7657398
  53.8968453   6.2170622  41.4794602  53.2129082   5.0219033  40.8511128
  69.6126604  63.4790707  66.4257240  69.1019773  63.5801744  65.6224728
  68.9781475  63.6078072  67.1307468  71.4894390  53.7551355  35.8010578
  72.2420931  54.0608501  35.2948141  70.8607912  53.4612083  35.1417851
  26.2564986  26.0122155  41.7067003  27.2011225  26.0721444  41.8492699
  26.1422007  25.2135037  41.1917067  10.7394410  50.2352953  59.2836332
  11.1772729  50.2529144  58.4326220  10.3122426  51.0892296  59.3509197
  38.7797579  22.5494740  11.4846577  39.5993075  22.1308873  11.2213101
  38.3978305  22.8647397  10.6655277  18.0108731  79.0225528  14.1829361
  18.7889807  78.6296605  14.5784344  18.2603591  79.9313186  14.0151943
  52.2089672  65.3225946  42.6059961  51.3234377  65.3900862  42.2489119
  52.7809334  65.3813601  41.8407297  62.9211411  19.2716239   3.0177750
  62.3759732  19.4933579   2.2628893  62.7235875  18.3517478   3.1939472
  80.9140110  39.9220324  62.9326868  80.4731083  40.2293348  63.7247753
  80.4793072  40.3899670  62.2197390  17.1872235  57.3340178  39.0660906
  17.9847813  57.8414202  39.2166805  17.3858452  56.7977905  38.2984734
  32.5727273  40.9658909  68.5414600  32.0217419  41.6601038  68.1799078
  32.0439244  40.5795097  69.2395401  58.3973503  19.7915506  40.2540350
  57.6616192  19.9439144  39.6609783  58.4679031  18.8384938  40.3082323
  11.1864838  18.5659859   9.5670094  11.2481198  17.9737208   8.8175692
  10.7503733  19.3448756   9.2215122  72.0197678  53.4620905  25.8741927
  71.7167902  52.5942039  25.6073403  72.6729631  53.7004852  25.2163649
  45.0938592  33.4699462  16.0630287  45.5323586  32.6961444  15.7092060
  45.7214007  34.1810439  15.9335388  19.7970963  35.1890969  48.3391237
  19.6558762  35.1163483  49.2830515  20.7361222  35.0423670  48.2254219
  10.8423615  48.7361383  64.2482471  10.6284619  48.9845276  65.1475716
  11.0343552  47.7996922  64.2976332  32.2715354  46.9157696  63.3702040
  31.7624378  46.5046358  64.0687847  32.9280543  46.2602282  63.1346607
  69.9069500  64.9380159  57.2721386  69.5548773  65.7874393  57.0061350
  69.6931028  64.3520975  56.5460491   5.7687092  34.2507911  40.6561279
   6.0381795  35.1134801  40.3408813   6.5293027  33.6907530  40.5009651
  74.9114275  25.8387542  66.1144924  75.0578308  26.7782807  66.2244177
  75.6803370  25.5310702  65.6345558   7.4568177  43.9937973  51.5853596
   7.3060609  44.5374298  50.8120775   6.9213772  44.3962479  52.2691536
  69.3042994   7.9947603  25.6028175  69.0475655   7.2018099  26.0735059
  69.1038895   8.7083220  26.2085390   9.0050603  70.8857059  58.9813185
   9.4051171  70.1795244  59.4887590   8.5982133  70.4441881  58.2358217
  55.1107025  40.3461409  60.6547260  56.0341978  40.4470253  60.8853912
  55.1160049  39.7662282  59.8932123  54.4758892  47.4122190  53.3964157
  53.6184978  47.8343916  53.3426905  54.6022177  47.2445726  54.3303156
   8.7629414  26.6346860  46.6452885   9.0731145  26.5438437  47.5462723
   8.0215455  27.2370028  46.7067957  59.6230221  76.6328955  52.6967001
  59.1460228  76.4165735  53.4978914  60.2090693  77.3454142  52.9518414
  45.5509663  60.1482821  69.4975710  46.4963293  60.0048542  69.5416594
  45.3679705  60.7598114  70.2108574  79.4799320  63.4952186  23.1548752
  80.2693026  63.6406826  22.6333679  79.7920410  63.4681223  24.0593590
  35.3997836  51.8085835   6.9044937  34.8266635  51.4132664   6.2476124
  36.0873017  51.1576531   7.0453848   9.7757898  27.6059220  17.7142967
   8.8371263  27.6265738  17.9005779   9.8379216  27.7875254  16.7765392
   5.3748322  50.0224113  53.9322853   6.0515690  50.5639124  53.5260487
   5.1359273  49.3895435  53.2550621  23.9620917  64.3582390  14.0828957
  24.6256964  64.3165968  13.3943237  23.3248179  63.6857413  13.8423599
  41.5491614  15.8214686  16.3213982  41.9814667  15.9624550  15.4790939
  42.1657214  15.2856085  16.8203320  36.7188780  70.5821775   6.0932602
  36.5057795  70.7441305   5.1742424  37.6470606  70.3483771   6.0862984
  71.6977167  55.4857492  54.8894215  71.5034151  56.3742304  55.1878691
  72.4126339  55.5947065  54.2623186  75.6565094  50.6266975  57.9368114
  75.8434725  51.3547611  57.3441887  74.7561502  50.3753662  57.7308512
  79.2263269  68.4918928  64.6720219  78.5083199  69.0750360  64.9182749
  78.8078928  67.7996922  64.1601610  76.7302847  40.5061913  66.5807486
  76.2378550  41.1975813  66.1383390  77.6404524  40.6612444  66.3282013
  73.7455926  19.8200772  15.3468479  73.5114846  19.9870751  16.2598290
  72.9728875  19.3943474  14.9754776  68.0218561  66.3174892  59.5659876
  68.2558210  65.6096328  60.1663446  68.5258444  66.1352778  58.7728691
  43.5517447  18.3883809  48.3506536  44.0627425  19.0856694  47.9396820
  43.0156844  18.0342435  47.6411057   9.2242146  79.8567009  44.0460730
   8.6453534  80.5730152  44.3069077   8.9217091  79.6104860  43.1719446
  74.1003990  43.8331652  52.9022884  75.0571728  43.8580942  52.8884172
  73.8683033  44.0473986  53.8058758  72.2955751  73.6548042  65.6511116
  71.8870592  73.0502939  65.0315046  71.6355371  73.7815189  66.3326693
  69.3748841  43.0224106   2.8905930  68.6473832  42.5234387   2.5191034
  68.9789376  43.8450596   3.1781735  45.7548365  28.6941645   4.1204561
  44.8369488  28.4376309   4.0315642  46.2408623  28.0065844   3.6652197
   7.4134350  41.8736839  69.4735146   8.0659867  42.3866510  69.9502420
   7.9233170  41.3611317  68.8461876  76.5661478  54.4092369  65.7214212
  76.5850163  53.6364889  66.2859917  75.6607103  54.7165012  65.7661629
   6.7054940  52.5074100  46.0021877   6.8783188  53.1444407  46.6954041
   7.5593281  52.3576021  45.5962658  24.3418639  60.1963698   0.4249682
  24.9587672  59.6221565  -0.0288425  23.7681048  59.5995270   0.9053864
  39.9467978  46.4235852   9.7450985  39.7953114  47.3342106   9.9981655
  40.8680091  46.2673161   9.9528851  48.5892582  64.5516634  21.7272854
  48.7333632  65.3477049  21.2156343  48.7939692  63.8381624  21.1229348
   8.9796155  26.7639875  42.1669960   8.3800309  27.4562787  42.4453354
   9.0335696  26.1764955  42.9207706  64.9865136  46.3493989   9.1843189
  64.1251263  46.1980221   8.7953056  65.0542245  45.6940816   9.8787369
  79.7655249  68.6674309  26.4396620  79.2819786  67.9570723  26.0179901
  79.7282696  69.3885374  25.8112884   1.1479371  25.8605622  23.9455867
   1.8488257  25.4808377  23.4156823   1.5787165  26.1251687  24.7583866
   2.3360341  80.8812927  10.0869621   1.6762107  80.3799723   9.6078457
   3.0170434  80.2420925  10.2964367  17.3286820   2.5549248  57.3098087
  17.6561547   2.9717875  58.1068134  18.0948449   2.1211389  56.9342375
   4.6905415   0.2924108  56.6015244   5.5719226  -0.0674010  56.7012167
   4.3210881   0.2691602  57.4842453  74.0821919  24.4706271  10.5834259
  74.8411641  23.9059947  10.7296242  74.4556794  25.3373883  10.4238476
  27.9251712   7.5317906  54.0717602  28.6191504   6.9673108  53.7311983
  27.2487681   7.5148439  53.3946896  65.3098759   9.4327567  16.7785515
  64.6220288   9.0414021  16.2400879  65.0885281   9.1759751  17.6736988
  51.9215441  73.1219673  51.7372179  51.7922449  74.0148067  52.0571518
  51.9027281  72.5798607  52.5258875  79.2049599  45.5718327  42.3555517
  79.4673252  46.3476086  41.8600035  79.7320318  45.6079292  43.1537533
  47.0746741  30.4455445  15.0354160  46.3798270  30.0018714  15.5217995
  47.8770051  29.9952862  15.2995552  12.0903056  73.6291097   2.3776545
  12.9651444  74.0175031   2.3715414  12.1084635  72.9867600   1.6682257
  62.5710147  32.0099782  58.7327814  62.7398532  31.3196897  58.0915165
  63.4371607  32.3596620  58.9419174  13.3800412  64.5053434  66.8219042
  13.0195523  64.7508144  65.9698343  12.6490307  64.0918493  67.2811174
  75.0931821  37.2059891   9.6398796  74.7557530  37.4783871   8.7865509
  74.9604687  37.9676888  10.2041783  41.1380181  22.9674790   0.7722058
  40.2551112  23.2776139   0.9735026  41.0096631  22.3008320   0.0974144
  72.0244774  56.5083382  15.8940758  71.2457738  56.8765996  16.3114800
  71.7005429  56.1242268  15.0793709  43.5708413  18.1179354   0.8768000
  43.5372815  17.2147629   0.5615391  42.7030406  18.2739709   1.2493719
   2.7475548  30.7103872  41.5789461   2.8990746  31.6548777  41.5441465
   1.8798161  30.6213832  41.9730759  23.2966449   5.5064508  21.4457764
  23.4198024   4.6856806  21.9226517  22.5254848   5.9046289  21.8495144
  69.4905512   7.6631879  39.4455385  70.3608887   8.0615567  39.4391537
  69.6256487   6.7867707  39.0851569  75.2375221  43.9250040  69.1206455
  74.6333647  43.2502460  69.4303703  76.1049318  43.5313511  69.2148209
   9.2011071  80.1750851  25.8771586   8.2776261  80.0666809  26.1044717
   9.2728329  79.8205948  24.9909186  70.1549816  69.1104650  63.9422655
  69.5108747  69.1854715  64.6463490  69.6435928  68.8483381  63.1767511
  68.7609673  72.7469969  50.5870533  68.3904123  72.3457432  51.3731289
  69.2349577  72.0359135  50.1558638  69.5658383  40.7245896   5.5720820
  69.2523369  40.5293534   4.6890034  68.8667378  40.4154847   6.1482300
  84.2216015  69.3818188  65.0170851  84.8571777  69.5642710  65.7091761
  83.8647652  68.5220909  65.2401638  12.8488963  22.5566911  32.4964714
  12.2612231  23.3012055  32.6251960  13.3473771  22.7782201  31.7099142
  30.4244996  54.5813656  70.9875441  30.9650040  54.7211361  70.2100182
  29.5334817  54.7780848  70.6983662  18.1514175  77.0590345  51.3492966
  18.4501846  77.9464934  51.1508369  17.7866848  76.7389769  50.5242109
  39.6366175  64.0356315  35.1618028  38.8062199  63.5675598  35.2489114
  40.2791317  63.3509398  34.9757910  72.4571173  37.6738362   1.2449469
  72.8094999  38.2778208   0.5912985  72.7769224  36.8135481   0.9731735
  27.2738989  81.1277561  51.2157297  28.0538948  80.8980071  50.7107067
  26.5473660  80.7520888  50.7184792  57.2152185  35.4037857  50.0718784
  56.6018820  36.1266947  49.9397850  57.8346014  35.4795218  49.3460226
  49.4102240  22.6864409  32.8811550  48.6676884  22.8040385  33.4736419
  49.1742420  23.1857705  32.0993519  32.1271284  73.2092900  26.9299126
  31.6119297  72.4037291  26.9731784  32.2099073  73.3906622  25.9937048
  35.5416942   7.4243683  56.7995596  34.8076487   7.6072437  57.3860407
  35.1416063   7.0014036  56.0397816   8.4113312  33.9311624  25.9463453
   9.0834618  34.3535614  26.4811873   8.7464715  33.9881301  25.0515437
  12.5872517   7.9750830  15.3468204  11.6679478   7.9965603  15.0810289
  12.5731373   7.6015598  16.2280202  76.9053650   0.0227484  33.6196470
  76.2395954   0.7060866  33.5420084  76.4847803  -0.6636930  34.1374683
  38.6345442  79.4604302  29.7221780  38.9254673  79.9712432  28.9667559
  37.8655251  79.9291449  30.0464487  64.6070337  11.5219092  35.6192636
  65.5339003  11.6516888  35.8200264  64.4555187  12.0500100  34.8354363
   1.9059618  48.7487794  50.5147648   2.2708877  49.3681384  49.8827362
   2.1599443  49.0999103  51.3682461  75.7149363  10.7972848   7.7166212
  74.9740505  10.5294359   7.1729469  75.5865431  10.3313291   8.5428363
  74.2769575  18.5570216  59.4245052  73.6841679  19.1678667  59.8623419
  73.9075994  17.6928902  59.6063995  74.0872398  56.4367857  61.0685156
  74.5092645  57.2940590  61.0118531  74.6072593  55.9559157  61.7123906
  51.0334023  75.0754387  35.9528828  51.7521437  75.3731925  35.3952265
  51.3587721  75.1918806  36.8455243   7.6100452  65.9125234  37.6145077
   7.3470338  65.5438937  36.7711997   8.3031376  65.3298474  37.9249024
  63.9645632  77.6146007  40.8294201  64.3364676  76.9065301  41.3553095
  63.0182608  77.5252564  40.9423828  59.4803293  61.7260076  65.8232498
  59.6090849  61.3627339  66.6994238  58.5376890  61.6575027  65.6717062
  86.0638905   8.8533950  14.3909132  86.3951683   9.0073079  13.5061538
  86.6708660   8.2155299  14.7663391  62.9661417   9.6105039  23.1896138
  63.6523914  10.1436400  23.5909367  62.2539043  10.2265143  23.0179191
  17.6048684  19.3084431  39.4186068  18.1782246  18.5999632  39.1261148
  16.9192672  19.3523681  38.7520838  56.3056612   1.1448422  56.5725136
  56.5465498   0.6810099  55.7705975  55.4011393   0.8801169  56.7398119
  13.1441022  15.9696937  52.4851799  12.8297330  16.4827108  53.2296419
  12.8463841  15.0781035  52.6659155  62.7446747   4.5302096  28.2932210
  62.4337244   3.8708717  28.9135551  63.4640741   4.1020301  27.8291512
  25.8666904  75.6554116  63.8940048  26.5612610  75.9243561  64.4952297
  26.3290222  75.2551443  63.1576204  68.5727119   8.5310936  34.4271660
  68.3445406   9.0487105  35.1993346  68.4913969   7.6220208  34.7156239
  70.2851152  14.6357250  28.6999750  71.2024450  14.6219790  28.9730048
  70.1534462  13.7957001  28.2603693  70.1371145  31.3870072  44.1920137
  70.5384970  31.1850739  43.3468199  70.8521032  31.3030720  44.8228645
  44.2405470  68.1388308  16.3627279  43.5709246  68.2826317  17.0314276
  44.3893345  67.1933139  16.3722074  51.1681509  24.2119741  59.3340254
  51.8450594  24.2964458  60.0055122  50.5346775  24.8978829  59.5449114
   7.7817360  45.7507103  69.2003021   7.6373974  46.0654976  70.0926626
   6.9204441  45.8022963  68.7858766  34.4766195  81.3373986  31.6352940
  33.5419233  81.5236641  31.7240500  34.5133217  80.5483701  31.0946274
   9.1374326  42.7290249  47.8267050   9.5589346  42.1833038  48.4906006
   9.8614502  43.1801844  47.3925591  79.4526482  37.5588298  18.6663449
  79.3525076  38.4670043  18.9516962  78.6140871  37.1478868  18.8765240
  11.9314440  62.6112951   7.7558392  12.6494749  63.2103504   7.9602903
  12.0744141  62.3695267   6.8407768   5.6586321  65.8302320  58.8162851
   5.4528220  66.6639269  59.2391634   5.2896698  65.9103156  57.9366922
  47.8226097  58.5330463  38.7244153  48.2047136  58.0126668  38.0177093
  47.1705826  59.0836216  38.2908702  15.8145106  31.7582059  27.0559525
  16.3136435  31.3486147  27.7625895  16.4367282  32.3524070  26.6364288
  45.0526674  72.9601617  55.3276682  45.0982626  72.7419759  54.3967819
  44.2507418  72.5366707  55.6339359  78.1794500   8.7879401  27.7889228
  77.4915743   8.1779224  28.0552626  78.9956760   8.3183527  27.9606700
  20.2118166  29.2933322  46.3316011  19.6436747  28.5319520  46.2143612
  20.6734283  29.1235448  47.1527719  32.2570205  36.0840654  44.5637894
  31.4103866  36.4970970  44.3939304  32.7831388  36.7738104  44.9683619
  82.8785229   2.7260652  18.1693935  82.2044849   3.3485356  18.4422016
  82.4223614   1.8860906  18.1185222  55.3973293  27.4828577  47.1613312
  56.0239315  27.7748108  46.4992428  55.8879757  27.5075650  47.9828453
  70.9400749  54.2899466   8.3414757  71.7119360  53.8538074   7.9805869
  70.2035856  53.7508249   8.0530894  21.5584374   2.7291456  52.8701878
  21.6855145   3.6648610  52.7135897  20.6577302   2.5601894  52.5937653
  48.5298204  17.6264822  45.7708263  48.3385754  17.8398669  44.8575211
  47.8904867  16.9512892  45.9979725  62.6018953  33.0748510  25.1649022
  62.0955086  32.7962661  24.4018865  63.0467653  33.8726544  24.8788381
  48.2644463   8.2807797  52.7273941  47.6956558   8.4510064  51.9765711
  48.5674715   9.1469944  52.9995728  78.9055443   8.0589521  63.9874172
  79.3005753   8.8243902  64.4048882  78.4534502   8.4109563  63.2206440
  80.4250240  45.2104616  65.7726812  80.5965042  46.1355972  65.9486151
  79.6971416  44.9872303  66.3528395  45.0461245  17.3742545  37.3401380
  44.9262094  16.8530691  38.1340027  44.6910429  16.8278599  36.6389966
  31.2109090  11.7916214  55.5733967  31.0524464  12.6511729  55.1831532
  30.8413315  11.8565571  56.4539766  75.5898046  24.5142698  29.2066765
  74.7176790  24.2065406  28.9598465  76.1693716  23.7802505  29.0028358
   9.0234471  31.3101101  35.8356071   9.5975304  32.0706415  35.9264326
   9.5900059  30.5596280  36.0145497  24.4904995  19.9518085  43.9778996
  24.2788601  19.0615594  43.6970139  23.6404371  20.3581023  44.1468763
  83.6082712  35.6169196  64.6567045  83.3992877  34.8567887  64.1137878
  82.7655521  36.0474371  64.8006074  62.7651548  25.4333520  27.6164651
  63.5794306  25.7246280  27.2061682  63.0354404  24.7421026  28.2209086
  14.2171805  44.5150538   9.7779144  13.5513299  44.1511952  10.3614296
  13.7385314  44.7429325   8.9809241  57.1511221   0.3565066  53.5544395
  56.8665981   0.2508876  52.6466274  57.2846460   1.2989461  53.6554861
  36.2573631  60.4820825  20.7999349  36.3936623  61.3854123  20.5141878
  35.3441389  60.2968217  20.5809951  69.1473635  75.5261726  18.0123532
  69.9437197  75.7681806  18.4850943  69.4617994  75.0784672  17.2269082
  50.2414894  20.1443553   7.8740090  50.5330849  20.8821821   8.4095609
  49.3618250  19.9475503   8.1960189  37.0211196  11.9930720  24.7948837
  36.1431575  12.0651352  24.4204235  37.1291232  12.7938628  25.3080130
  28.1134089  75.3837676  61.6774082  28.7074144  75.3248901  60.9291267
  28.6828859  75.3012831  62.4423409  14.5417119  11.4517128  18.7722385
  14.8382378  10.9189618  18.0343509  13.6333275  11.6679823  18.5617507
  67.2431850  28.8925314  56.3064194  66.6711950  28.8172626  55.5426168
  68.1190968  29.0108109  55.9389687  80.5343056  20.4609489  35.0281191
  80.2887821  21.1720729  35.6199408  81.2660980  20.0265527  35.4662943
  52.2592354  21.4117122  52.9469728  51.8118525  21.3395262  52.1038437
  52.0525646  20.5934548  53.3986092  41.0591364  59.6767712  67.1488190
  41.3225174  59.2331839  66.3425350  41.8514681  60.1242638  67.4457884
  54.6747509  70.3859618  65.2171497  54.7938076  71.2202670  65.6710146
  54.0135017  69.9247959  65.7331948   9.0250588   7.0316565  68.2860470
   8.2902337   7.6390660  68.3715296   8.7660218   6.4402890  67.5793552
  58.0005264  10.4046309  43.2859564  57.1418142  10.8148873  43.1833076
  58.4904671  10.6771886  42.5101328  77.0144653   0.9735455  57.4453640
  76.1890173   1.4302018  57.6076412  77.6137447   1.6593958  57.1509075
  87.0324626  47.3778518  69.1991623  86.6533866  46.6598972  68.6921379
  86.4893976  48.1360670  68.9837105  63.7482929   7.6970434  35.0985122
  62.7986908   7.8160316  35.1167297  64.0581751   8.3408600  34.4615626
  51.1276007  27.6866865  61.3139582  52.0577574  27.6542449  61.0903883
  50.9571695  26.8525100  61.7513752  46.4329760  70.6025599  10.3636707
  47.3516410  70.4419778  10.1480545  45.9788554  70.5624221   9.5220150
  67.7247381  18.7961829  59.3105984  68.2955456  18.0443203  59.1521311
  67.6457453  19.2211425  58.4565496  23.9332970  62.8590775  54.7094679
  24.1459473  63.7909449  54.6581459  22.9964550  62.8375913  54.9046564
  68.5617828   8.4022629  55.2090740  68.1231689   7.6624990  55.6293106
  69.4915104   8.1761730  55.2359104  54.0729952  25.7734799  27.5955248
  54.5401335  26.2696171  26.9233179  53.1559134  25.8059669  27.3232460
  76.4396381  14.3951070  27.5104499  75.8728647  13.8996923  28.1016898
  77.3278952  14.1439319  27.7637196  78.1391859  13.8548398  42.0840359
  77.8041887  14.6313500  41.6356611  78.2532978  14.1334748  42.9926491
   1.8259621  12.9502738  11.8181908   1.1510564  12.3963356  11.4258957
   2.6337338  12.6959598  11.3720262  17.7613600  69.2609192  36.0994482
  17.2019251  70.0293530  35.9864140  18.6522062  69.6110917  36.0992289
  37.5811219   1.6708502  33.6117077  36.9675422   1.4379697  34.3085003
  38.3930230   1.8875620  34.0700555  80.9357929  15.3768003  36.6346693
  81.0729885  15.1125360  37.5443792  80.6563377  14.5754337  36.1920071
  50.2315664   4.9100506  24.7444963  50.3702545   5.7808387  24.3720388
  51.0585546   4.7007811  25.1787043  64.6572590  13.8793874  33.7471914
  65.5559111  13.9719272  33.4308100  64.1763258  13.5213339  33.0010486
  62.5245190  27.4236560  34.6075439  62.4155235  28.3732533  34.6586990
  63.0751896  27.2049332  35.3593087  63.7155970  74.9100924  47.8670692
  63.2828386  74.0777374  47.6769590  63.0901678  75.5759717  47.5812769
  72.1592093  34.9510002  30.5709052  71.3174963  34.5791459  30.3073168
  72.1666241  35.8259177  30.1827049  54.9177933  26.7901754  24.9649000
  55.5224133  26.2682676  24.4373798  55.0194693  27.6823473  24.6333575
  60.6947899   7.8042787  50.0117636  60.0210953   8.3012366  49.5476484
  61.2231684   7.4107385  49.3173742  30.6760796  80.4391690  14.7382033
  30.0813540  79.6942509  14.8255575  30.1940878  81.0688810  14.2021251
  68.1584223  61.9606782  28.5159802  67.9416521  62.8921104  28.4750319
  67.3440989  61.5147806  28.2830024  64.8723173  12.0302403  64.0840197
  65.0337410  11.4385724  64.8189354  64.9211168  12.9062855  64.4666338
  67.8726864  10.1676452  36.3418198  67.0937967  10.0914025  36.8929601
  67.9289389  11.1004019  36.1343789   2.5320244  31.5107322  21.0042715
   1.6423608  31.1576891  20.9946036   2.5529481  32.0864582  21.7686868
  66.6068991  50.8721329  53.4356499  67.3840769  50.6977607  52.9047775
  66.0057505  51.3198949  52.8403759  32.1610983  68.7364615  12.9927266
  31.7845543  68.0949200  13.5951126  31.4600332  69.3726934  12.8514969
  85.3902435  33.3869362  33.2658124  85.8841419  33.0491424  32.5186896
  85.7857609  34.2391706  33.4488177  67.8493309  46.4720583  50.0913572
  67.1872902  45.8946419  50.4715204  68.6834478  46.1079597  50.3878641
  49.5267909  29.2952882  15.3688015  49.5214980  28.4764622  15.8645119
  50.2604334  29.2025815  14.7610153  77.6372147  27.7811003  23.5993171
  76.9586754  27.7441931  24.2734480  77.7591610  26.8700814  23.3320999
  71.9556379  11.0406744  50.7161808  72.5406647  11.7346907  51.0200214
  72.5250578  10.2794993  50.6039000  25.5303860  35.9886837  35.6606793
  25.1686574  35.8871603  34.7802949  25.5720807  36.9355273  35.7947731
  11.6080912  69.7157098  46.6296244  12.1106775  68.9242459  46.4366913
  12.2444351  70.3139950  47.0212317  27.4530808  54.5558395  70.8784318
  27.1555630  54.0120842  70.1490185  26.7012421  55.1108398  71.0856702
  77.8494787  25.4010415  22.7626419  78.2095003  24.5734096  22.4438286
  76.9028234  25.3071046  22.6565742  82.2506809  10.8963192  10.2699924
  82.8514957  10.1684833  10.4296994  82.6961422  11.4356637   9.6166170
  81.4171886   7.4393761  56.8515921  80.9333324   7.7288574  57.6251030
  81.3988304   6.4836490  56.9013929  60.8524656  21.0293174  45.0858450
  60.8780384  20.8879781  44.1394806  61.5900564  20.5214524  45.4238796
  61.4004477  77.1531899  41.8520260  61.6847094  77.3452310  42.7456427
  61.4210375  76.1979599  41.7942047  31.3575912   0.7724859  43.6199760
  30.5149722   0.7166006  43.1693077  31.9300056   0.1806387  43.1318235
   0.8865071  19.1022289  27.0068741   0.1514626  18.5133541  27.1776295
   1.5269662  18.5589528  26.5476298  32.8400230  19.8116720   2.0864615
  33.5390568  19.2575276   1.7393172  32.5589275  20.3391623   1.3388181
   1.3602162  45.6457472  50.6581402   0.4811955  45.7913351  50.3083467
   1.8962193  46.3254118  50.2495003   8.4889086  79.5555077  61.9274855
   9.0514668  80.1752020  61.4630079   7.6160224  79.9459978  61.8848515
   1.2828351  35.9737802  22.4155927   1.4459801  36.5357447  23.1730962
   1.4296437  35.0854111  22.7403712  14.8508465  19.4776940  63.4710646
  14.5785522  20.3835940  63.3246613  14.3837047  19.2122316  64.2632389
  25.8671522  36.8160486  50.0202847  25.5170846  37.5170636  49.4705009
  26.8079424  36.9884372  50.0580597  55.9427309   6.9593042  18.6597812
  56.0741758   7.3228800  19.5354331  55.8320570   6.0196382  18.8047326
  81.3551903  14.0448761  30.9400344  81.4244556  13.2502985  30.4108071
  80.4389763  14.0697098  31.2160301  82.7197647  46.2141895  35.2966022
  81.7852211  46.0240889  35.3786039  82.8037357  47.1266937  35.5732179
  44.2986210  57.9103805  20.7463455  43.5963829  58.5604073  20.7227063
  44.1570623  57.4345137  21.5647221  84.9075985  27.8190136  36.1036038
  85.5238914  28.2532358  35.5137968  85.1151848  26.8880081  36.0237908
  43.2607658  73.2539804  52.6297855  43.6954649  74.0744866  52.8622437
  43.1290968  72.8073830  53.4661150  59.0458107   8.5038948  36.8679023
  58.1822872   8.2424152  36.5482426  58.8890076   9.3219334  37.3395538
  49.2484140  10.5582058  43.1038761  49.8695374  10.8797455  42.4503851
  49.0298891  11.3297164  43.6266136  34.3635440  32.9678226  52.4545670
  34.2920470  33.7083697  51.8523121  33.8527751  32.2721910  52.0405054
  64.4220352   6.3288623  49.2668056  63.6494398   6.2831759  48.7035656
  64.7714901   5.4377317  49.2667818  71.7131472  31.6790557  36.8228197
  70.8845568  31.2520003  37.0402861  72.2129011  31.6618776  37.6390171
  44.8081358  67.7956510  66.4875650  44.5894726  67.9352582  67.4089384
  44.5520409  66.8895865  66.3152504  78.8949959  79.8452972   0.6772722
  79.0237085  79.0094160   0.2289738  79.6023838  79.8832558   1.3210024
  66.5879583  11.3659346  61.7298937  65.9773493  11.7374837  62.3665524
  67.3362398  11.0804033  62.2540903  51.9283852   6.3277886   8.0246557
  52.2544179   6.2047551   8.9161648  52.5477204   5.8479092   7.4747719
  55.7947826   1.4910157  45.6704044  56.1016321   0.6957154  45.2349997
  55.4152393   1.1824100  46.4931679  45.5842495  20.4041457  34.0560389
  46.4814711  20.5805707  33.7730217  45.2187586  19.8531103  33.3639312
  49.7891283  12.6010585  19.0158093  50.4812431  11.9649386  18.8353598
  48.9769316  12.1320271  18.8245547  33.1632090  28.9838624  42.9645729
  33.5710716  29.6829534  42.4535465  32.6173210  29.4416881  43.6038208
  44.9707047  58.5771003  66.2495954  45.5527130  58.0370035  65.7150046
  44.8888699  58.0974831  67.0739154  10.1755906  34.6158791  60.9015417
   9.3113518  34.9873590  61.0785246  10.0826359  34.1880012  60.0503588
  65.5829906   6.4620817   4.7277626  66.0419035   6.5396869   3.8913360
  64.9876308   5.7224226   4.6065837  47.8778036  74.3915189  23.4717107
  48.7493380  74.0381319  23.6499643  47.3730095  74.1931755  24.2604280
  36.3853367  81.6129997  13.6441076  36.7641933  82.3660705  13.1906939
  37.1414812  81.1020570  13.9329255  75.3985786  12.3800480  32.1435308
  75.5110216  11.4526725  31.9348168  76.1431408  12.5907302  32.7069759
  72.5153303  47.7762556  60.9382057  71.7574596  47.9625654  60.3839922
  73.1143475  48.5054350  60.7778692  80.4828508  73.0122174  39.3315315
  81.3594492  73.3007331  39.5856285  80.1754435  72.4956013  40.0764036
  11.2552262   2.9105505  32.4480057  10.9623147   2.2745180  31.7953992
  12.2006226   2.9746312  32.3125267  75.2462149  20.6700516  30.1232529
  74.6270943  21.2203121  30.6029773  74.7483587  19.8815620  29.9072576
  46.9837856  20.5003071  57.8867197  46.0618019  20.7261467  57.7635479
  47.0194626  20.1061392  58.7582684   6.7440550  61.7962836  23.7176575
   7.0682233  62.6877974  23.8455261   7.4630635  61.3404463  23.2800736
  16.8105508  40.8289766  51.6342640  16.3109303  40.0461674  51.8662786
  17.7017213  40.6401873  51.9282055  10.4809387  78.4018684  45.8578873
  10.1113470  78.9565198  45.1708698  10.3750165  78.9123116  46.6606712
  16.2736042  66.4749158  28.6897731  17.0526035  66.0510457  29.0499425
  15.6234940  66.4158667  29.3898439  60.7283552  72.7768523  31.8462992
  61.1943300  72.8440047  32.6797223  59.8169191  72.6205141  32.0934057
  23.3893354  73.9964093  36.6140842  22.6669271  74.5287884  36.9471478
  23.1363161  73.7845690  35.7155633  69.5337772  50.8713150  60.6864405
  70.3961134  51.1648989  60.9804058  69.6897840  50.5028725  59.8168755
  13.3969887  59.0874005  24.1624832  13.0306538  58.2291461  23.9493394
  12.7130802  59.7085882  23.9122248  41.0140800  13.2525969  58.6237478
  40.3187132  12.6668584  58.3243942  40.7131720  14.1271996  58.3772564
  81.3146782  11.4290333  29.9359369  81.5441895  10.5755544  29.5683384
  80.3584003  11.4226103  29.9774623  14.7636898   3.1602789  66.1865891
  14.1273363   2.8540780  66.8327521  14.7537001   2.4893118  65.5039941
  26.6682060  62.1071542  42.9724884  26.3922794  62.3172368  42.0803213
  26.7422445  61.1528684  42.9818535  45.6186485  11.7410660  41.2931299
  46.1694765  10.9586251  41.2685299  45.0107050  11.5833783  42.0154667
  61.2585640  22.4294162  61.7068338  62.1085930  22.7390265  61.3940716
  61.3796949  21.4890409  61.8381739  46.8182571  69.1373743  26.9369912
  47.7241953  68.8302113  26.9029450  46.4312132  68.6608256  27.6713824
  18.7225573  64.9777721   2.3637785  19.2819159  64.2084049   2.2568907
  18.8256066  65.4643034   1.5459170  46.9978579  63.0221308  28.7961984
  46.8717630  63.8135935  28.2728267  46.9054420  62.3038460  28.1702924
  11.9650555  28.2488847   2.2665490  11.2301350  28.1795382   2.8759032
  12.7046586  28.5153341   2.8126469  69.0088987  27.2448015  35.4377532
  69.5167065  27.4867868  36.2122250  68.2018185  27.7540874  35.5117965
  43.9833164   4.5380211  55.9105492  44.5980835   4.5500609  56.6441345
  43.5756922   5.4039603  55.9254169   6.7381756  73.1156109   1.6751112
   7.1874755  72.5052856   1.0904183   6.3501732  73.7662028   1.0899462
  14.7801209   7.4821150  32.8147793  14.1573716   8.0002230  33.3246636
  14.2362405   6.9952941  32.1955585   3.2153130  10.3050077  34.4595337
   3.5855103   9.4502074  34.2393112   2.5740815  10.4733837  33.7690926
   4.6126843  15.5574679  43.6301613   3.7360764  15.8986437  43.4529972
   4.4755746  14.8736143  44.2857313  25.3257290  38.1200527  60.1647590
  24.6886841  38.0504494  60.8757900  26.1757198  38.1296270  60.6048106
  28.7102931  53.3871173   5.0572361  28.8315432  54.1234599   5.6566776
  28.0290930  53.6805128   4.4521584  64.8036909  17.3126400  40.4779434
  64.2592764  17.2680748  41.2639809  65.5100918  16.6873860  40.6400824
  28.4241676  20.4607153  30.8047318  28.7996960  20.0284147  30.0377059
  28.9555025  20.1511121  31.5382576  18.0141655  36.2950473  71.0880471
  17.0945087  36.5603863  71.0803632  18.1252399  35.7926252  70.2809127
  68.1074572  25.6199193  44.2324781  67.5773621  24.9517846  43.7979364
  68.6795664  25.1267433  44.8204422  80.9135151  32.8268933  29.1649413
  80.8799839  32.7528381  30.1186824  80.2242565  32.2395992  28.8547230
  38.4096622  22.3192382   1.7004266  37.6308370  21.7645907   1.7454860
  38.1524706  23.0478215   1.1354065  51.5851076  69.5289827  65.7878590
  50.9121140  69.9508620  65.2536869  51.7304190  68.6824418  65.3653860
  60.7836914   0.2383840  30.6908941  60.1089478   0.0838550  30.0297809
  60.4592180   0.9850580  31.1943078  33.7700041  80.3624667  49.3505621
  34.6828802  80.6040323  49.1939211  33.2655247  80.9665839  48.8057899
   4.3360520  16.1062634  54.8036814   4.7207833  16.0492718  55.6783056
   4.9118233  16.7043686  54.3272543  61.1984404  64.5084823  28.6521173
  61.3263186  64.8022295  27.7501249  60.9491213  63.5878766  28.5711312
  30.6156445  26.3971400  32.4074411  31.4992452  26.0497260  32.5290298
  30.4228926  26.2431288  31.4825845  39.9832385  64.6912383   3.3906092
  40.7049601  64.7143506   4.0189566  39.4912284  63.9028238   3.6198677
  72.6054621  26.4084983  56.5751219  73.1615686  26.8741441  55.9504986
  72.9992437  26.5904450  57.4283886  32.4623816  48.9591764  10.6575360
  32.6908915  49.3666457  11.4929928  32.5052016  49.6742468  10.0226559
   8.0633736  37.3131013  66.0214138   8.4562684  37.7796865  65.2837372
   7.4227524  37.9275250  66.3796282  83.7349415   5.1189458  31.1964202
  84.0351391   4.3428048  30.7234311  82.7837944   5.1118118  31.0891652
  63.9712715  39.8796201  49.5720196  63.1226635  39.4390965  49.6171427
  64.5338488  39.2677116  49.0973520  56.1339808   5.6879568  38.4119225
  56.6060209   4.8786703  38.2157969  55.2539062   5.5420017  38.0649400
  77.3881912  36.3672066  52.9192448  77.4814320  37.2205400  53.3427525
  77.0543766  36.5688562  52.0450926  34.0350478  77.0101284  28.4578575
  34.8942607  77.0046972  28.0360188  33.4803240  77.5170396  27.8649296
  77.8753376  37.7626419  33.6153960  76.9685841  37.8931379  33.8928795
  77.8614426  36.9363809  33.1323528  61.6330719  29.8101163  15.7972002
  61.5457964  29.2782021  15.0061989  62.4108744  29.4634604  16.2343276
  34.6226795  74.2441739  39.7398448  35.0086506  74.9694056  39.2486262
  34.5727213  74.5646269  40.6404257  65.5745888  10.6266284   5.3800827
  65.0770617  11.3545418   5.7526898  65.1938391  10.4959691   4.5116422
   5.3154278  21.7701793  63.1234312   5.7670880  22.5998139  62.9687023
   5.9420586  21.1012506  62.8475618  85.9228420   7.1388078  55.4325581
  85.5837059   6.4363170  55.9872866  85.2782822   7.8416181  55.5152321
  81.0873699  28.8246417  30.0172353  80.3687286  28.4558582  29.5036340
  81.0269547  28.3837700  30.8647108  76.6782251  27.7953377  67.2960125
  77.5456777  27.4048819  67.1897210  76.7296424  28.2710554  68.1250362
  24.1433914  78.8744129   4.1210288  23.9174803  79.6939848   4.5609120
  23.3200605  78.3875997   4.0840137  56.5275049  27.0170188   3.6372650
  56.8985605  27.5137973   4.3664831  56.4093685  27.6642752   2.9420429
  83.5435104  24.8710132  56.0838509  84.0221786  25.4853010  55.5272913
  84.2259693  24.3566346  56.5149975  58.2705259  16.1778843  20.5423594
  57.8065634  15.7012451  21.2306786  58.4498358  15.5176163  19.8729360
   2.5775910   2.1653396  19.1213608   2.3009778   2.8682998  19.7092056
   1.8514157   1.5418792  19.1351962  13.1058312  23.9671803  24.8784471
  12.8976060  24.3920469  24.0463638  12.5090123  24.3701196  25.5090666
  21.0936403   2.3453242  70.1785755  20.9935451   3.0874637  70.7747650
  20.3446174   1.7811210  70.3706026  76.0335207  29.4718599  13.9270163
  76.3526821  30.2736282  14.3411851  76.6331625  28.7903523  14.2306733
  27.0623405  56.3242746  37.8214145  27.0294722  57.0952583  38.3877492
  26.5359743  55.6685258  38.2787609  54.3213701  26.9691873  21.0839748
  53.4457397  27.2315955  20.7999945  54.3169212  27.1059179  22.0313478
  18.9941891  77.8927434  39.7062230  19.5192535  78.4691889  40.2614260
  18.2991941  77.5736360  40.2818823   8.1481553  13.9532268  46.2871075
   7.8512765  14.2260242  45.4189634   8.3913518  13.0337596  46.1790991
  65.4071951  10.6448138  66.6186142  65.9922457   9.8875129  66.6396475
  64.7256804  10.4388154  67.2584057  67.1452284  38.9336348  50.2118015
  66.4942551  39.3038797  50.8079386  67.9736996  39.0085959  50.6853485
  65.7898664  14.3563831  29.7593522  65.1199293  14.9564517  30.0869751
  65.5092716  14.1475236  28.8683558  29.3012341  81.0840714  35.1144648
  28.8624151  80.2450935  35.2551293  30.2304895  80.8617094  35.0572848
  67.7292395  21.5900612  29.4951868  67.5183916  21.7801619  30.4093170
  67.7865219  22.4500299  29.0787649  60.8166544  45.8451675  10.7059063
  61.1346571  45.7393570  11.6025223  59.8745982  45.6864278  10.7656063
  37.8109591  67.9027604  32.3953308  37.2954505  68.7086247  32.3626770
  37.6694625  67.4931716  31.5418400  12.1888543  11.5186918  55.3890038
  11.7672253  11.7031217  56.2283182  11.5613461  10.9671319  54.9218273
   9.7209685  55.6829487   8.5884966   9.9822085  56.5752755   8.3610405
   8.8937991  55.7880174   9.0585913  86.0390186  37.1559739  47.8844309
  86.6935921  37.6949477  48.3285809  85.8725166  36.4337087  48.4901047
  18.8557339  55.8161545  35.2316785  19.6405602  55.3123426  35.4472184
  19.1341878  56.4048481  34.5301533  38.4595141   7.0370219   6.5496029
  38.6111436   6.9016764   7.4849762  39.0543923   6.4229272   6.1192097
  19.5915127   1.5182015  55.7879591  20.4994012   1.7192398  55.5609035
  19.4916058   0.5900390  55.5763817  15.2509293   2.8394435  24.1523899
  14.9669728   3.6748288  24.5235218  14.4778571   2.5038502  23.6985554
  86.5718842  28.6328173  34.2277384  87.0694542  27.8710437  33.9304829
  85.9674168  28.8192797  33.5093498  65.2971172  44.7740269  47.6628590
  64.3851185  44.4833994  47.6586390  65.7507563  44.1314173  48.2082891
  16.2299348  45.7806540  65.8653212  15.3579045  46.0634565  65.5899763
  16.3267708  46.1307907  66.7509031  61.4341164  32.2807884  61.4660406
  61.6626644  31.3627791  61.3202429  62.2768021  32.7271724  61.5488338
  61.3165617   8.8260084  42.4209213  61.9314432   8.5732180  43.1095791
  61.5192366   8.2398033  41.6918707  83.2824612  25.7052398  45.6617546
  83.9056206  25.1262307  45.2228355  83.7787247  26.5056825  45.8327484
   8.4687615   2.6524746   2.4612004   9.2469407   2.2140954   2.1169814
   8.7416840   3.5613054   2.5867909  56.8553019  18.3488679  37.0620489
  56.7365503  18.4050643  36.1139083  57.3639297  17.5485814  37.1927118
  32.0777075  65.2060579  22.4288716  31.3924544  64.7709035  21.9216217
  32.8885405  64.9962400  21.9654717   6.4342881  11.1279869  11.3845289
   7.3122788  11.0712624  11.0075045   6.5837193  11.2774861  12.3180985
  65.4676771  58.1750679  12.3940659  66.2948751  58.1165934  12.8721404
  65.7184744  58.1099844  11.4726019  14.8955250  56.7172146  48.1334925
  15.5366517  57.2944307  47.7187395  15.3973199  55.9406137  48.3811235
  28.8028035  21.6785452   0.5276694  29.4489894  21.9813178   1.1656346
  28.0400595  21.4395592   1.0543026  73.4126711  11.0144448  21.5359640
  73.9790154  10.9148932  22.3011923  73.3642960  11.9599974  21.3951802
  11.4153863  28.4163260   6.4359438  11.2650681  29.3571782   6.3441139
  11.2391377  28.0595255   5.5653918  58.6896610  35.2222729  45.3838539
  59.4732618  34.9986053  44.8816872  57.9655981  35.0788116  44.7744417
  44.7716332   7.6918328  40.9291935  45.5172063   8.2603741  41.1218214
  45.1436043   6.8103141  40.9010696   8.8715594  52.1061205  43.9462246
   9.6498053  51.7573737  44.3808903   8.2729714  51.3610934  43.8927616
  77.2304010  33.3940601  54.9737167  76.4390659  33.6307693  55.4574490
  77.0742178  32.4951816  54.6841335  56.4006901  23.8384438  36.6973758
  56.7699289  23.5418725  37.5292039  55.5112505  23.4847784  36.6904855
  64.1856813  21.3679123   5.7478559  63.2902193  21.0406065   5.6627208
  64.1250849  22.0639658   6.4021254  85.4890919  24.4454765  37.0118833
  84.7112560  23.9666295  36.7257023  86.1918163  24.1183996  36.4502501
  14.5231629  33.2138777  33.0566621  13.8378049  32.5982046  32.7969217
  15.2315236  33.0615997  32.4311519  85.5461407  60.2263260  61.7735767
  84.7611809  60.0139856  61.2686300  85.3914452  61.1147690  62.0944738
  77.2882891  23.4973240  43.3094168  77.6017714  23.9929628  42.5529099
  78.0813837  23.2827306  43.8005161  70.9248686   0.6673378  29.1210365
  70.8388329   0.1491593  29.9212384  71.4770031   0.1344639  28.5488272
  72.7405643  29.5556808  50.1013231  73.2687044  29.6502614  49.3086386
  71.8397236  29.4961548  49.7832394  78.5449982  14.6530008  45.0818396
  79.2907476  14.3061709  45.5715370  77.9294729  13.9215815  45.0330114
  40.4614456  75.7855917  34.1242862  40.1935585  74.8717470  34.0275669
  41.3889416  75.7896138  33.8877106  57.0600653  32.2928286  55.8954859
  56.1547375  32.3220110  56.2049437  57.0830774  31.5502048  55.2919865
  81.8081856  35.3535509  61.4611673  81.0843372  35.9751296  61.5380239
  81.3958836  34.5407414  61.1686277  72.9192019  15.6793118  48.8824034
  72.5418997  14.8751092  48.5258484  73.5887480  15.3779840  49.4965219
  36.0758528   4.5936034   7.3138251  35.7443223   4.6753762   6.4196076
  36.8606505   4.0520785   7.2297253  72.5009966  20.6620979  69.4609547
  73.1184244  20.6972861  68.7303543  73.0166674  20.9252739  70.2232218
  65.0051737  41.3689899  38.4193254  65.8154631  41.7458725  38.7622952
  64.6830797  40.8098173  39.1262984   4.0517331  39.1888928  44.6757793
   3.8268853  39.5033932  43.8001251   3.4575368  38.4536576  44.8261023
  18.7184613  78.6857675   4.0957846  17.8603547  78.6521386   3.6729874
  19.0291350  77.7805351   4.0794815  84.9844074  28.0813360  26.2188697
  85.7930470  28.4414864  26.5830398  84.5090294  27.7442765  26.9782400
  54.6117163  68.8245535  56.0811186  54.7228527  68.2506895  56.8391180
  54.6072578  69.7084379  56.4484882  29.6110099  76.3328837  14.0191807
  29.9614947  77.0122813  13.4431519  29.4146006  75.6009625  13.4344162
  71.3434982  79.8083067   6.7539924  71.4609051  79.1128683   6.1068380
  71.7498159  80.5777454   6.3551176  59.5186424  18.2648480  25.7234383
  59.5098543  18.9021552  25.0092983  60.2120590  17.6490474  25.4863858
  57.4522543  32.8823447  61.3171959  56.5819168  33.2143760  61.0969734
  57.8654337  32.7133155  60.4704714  80.9331894   9.4287616  23.8678908
  80.5837440  10.3144634  23.7696290  80.1589584   8.8661033  23.8827372
  26.6061307  33.1825900  46.1002111  26.0742284  32.4803209  45.7258654
  27.5063039  32.9468584  45.8758402  62.6780605  20.9571433  33.9670062
  63.3917618  21.1045098  33.3464050  62.5891352  20.0049663  34.0080523
  53.4595490  11.1699748  70.5773163  54.3132401  10.7410061  70.5187511
  52.8371812  10.5064976  70.2795172  79.5147228  13.2109702  13.0065060
  80.2390671  13.2569432  12.3824573  79.9000072  13.4787488  13.8408208
   4.3700497  53.6534463   4.5205988   4.2376321  53.8213550   5.4536070
   4.3977730  54.5233797   4.1222538  65.8067369   3.6373362  63.8448811
  65.0099516   3.4152561  63.3631659  65.9912825   2.8609604  64.3734741
   5.2007199   2.9341608  34.2903924   4.6245194   3.6674291  34.0746522
   4.9043561   2.2219053  33.7237406   6.9961739  11.2057519  52.6504421
   7.3781777  10.3599393  52.4161243   7.0223809  11.2236130  53.6071205
  55.3015757  25.2441287  56.7979240  55.5515146  25.0057983  55.9051991
  54.3727160  25.4666710  56.7352676  85.2970123  22.7824974  56.7829990
  85.4316616  22.9364753  57.7180910  85.0201416  21.8678474  56.7283058
  77.6914406  76.0836124  44.9867153  76.9529867  76.0281944  44.3802118
  77.3706675  75.6782150  45.7923174  62.4603701  33.4641337  31.4632702
  61.8993568  32.7947235  31.0716271  63.3515215  33.1711578  31.2728834
  73.7028313  38.9737797  43.7497091  73.0817318  38.5544777  43.1541824
  73.6348963  39.9071026  43.5483932  36.2727778  56.4401840  -0.0302635
  36.2449019  57.2174095  -0.5882727  36.5944235  56.7615031   0.8120741
   4.0227414   0.6143228  62.1843147   3.2088853   1.1180007  62.1979046
   4.0210534   0.1340863  63.0123234  45.7913344  46.3961779   1.8085541
  46.5876811  46.5386956   2.3201765  45.6871646  45.4448949   1.7875828
   2.2696686  19.7892630  20.8996153   1.4390565  19.8771477  21.3671660
   2.1445943  19.0304387  20.3297234  13.8974858  11.1654174  13.1676316
  13.6035443  11.4172733  14.0430713  13.8591099  10.2089882  13.1680191
  82.9779530   5.5155510  48.7224007  82.6979160   6.1310536  48.0449295
  82.3567200   5.6484789  49.4383764  71.8352413  43.0301428  35.4193473
  71.2050009  43.3390045  36.0702205  72.5116396  43.7071753  35.4008031
  66.8279552  43.1429577  39.4861794  67.3925447  43.8787365  39.2493391
  67.3913765  42.3732901  39.4061947  73.6105633  44.6935225  56.0798931
  74.0373802  45.2639771  56.7191458  73.4885168  43.8644934  56.5425491
  76.6175079  54.0287209  37.3007846  76.8982410  53.1225777  37.4285626
  76.0518789  54.2122602  38.0508590  12.5844384  38.8811421  20.8616900
  11.8944932  38.2448864  21.0498071  12.1359349  39.5927525  20.4048705
  63.7301588  36.9825006  16.5608168  63.3346081  37.1490669  17.4164021
  63.2580996  37.5611019  15.9619749  67.0122480  54.7105169  31.6033053
  67.4466467  55.4960632  31.9356346  66.0897350  54.9570084  31.5366411
  82.9122543  23.6350322  33.3043051  82.7111912  22.9767895  32.6390839
  82.0565319  23.9426112  33.6032391  24.6415902   5.7716411   7.3957044
  24.8353959   4.9919957   6.8752986  25.4917527   6.1931229   7.5214255
  56.0334492   0.2078810  22.1829629  56.9094610   0.0285485  22.5245357
  56.0318422  -0.1844975  21.3098836   6.8394852  34.0975499  46.9984245
   6.7526818  33.4174156  47.6663446   6.7203808  34.9186254  47.4757957
   7.3743336  36.8504630  13.0658592   7.0206492  37.4886425  12.4462952
   7.0727580  36.0039653  12.7361263  82.3085499  17.5834310  32.4774504
  83.1061363  17.9232740  32.8831482  82.0439434  18.2660151  31.8607688
  73.9107370  38.8917422  52.9766130  74.3685865  38.8863468  52.1360350
  73.7729216  39.8193645  53.1683350  79.7060966  28.0557203  70.2802563
  79.6586466  28.3955002  71.1738634  80.1614285  28.7388778  69.7881174
   3.8927174  62.5544262  54.9865627   4.4252873  63.2121801  55.4337454
   3.7434579  62.9196405  54.1144562  77.2418451  45.6779146  30.6469297
  78.0281878  45.5375004  30.1194978  77.4533319  46.4330006  31.1958861
   6.1245442  28.2981777  13.2067919   5.2690793  28.4452939  12.8033507
   6.4699555  27.5249434  12.7606690  82.9651356  34.8277330  25.7243848
  82.7987957  34.8382711  26.6669607  82.4777603  35.5791950  25.3867435
  78.2114983  19.3748438  39.4588709  78.2507038  18.8409674  38.6653519
  77.8993702  20.2282977  39.1581655   2.5304318  43.2834578  49.6484423
   2.2602940  44.1360521  49.9895382   1.8371201  43.0403566  49.0348864
  47.3228972  66.1761807   9.4217362  47.4825614  66.6729878  10.2241863
  46.3730853  66.0601567   9.3968548  82.6442719  30.6546545  31.5764904
  82.3501396  30.3208256  30.7289791  81.8662357  31.0629559  31.9561982
  49.2551407   1.0676596  16.9593300  48.7054667   1.8504689  16.9232907
  48.6351332   0.3433297  17.0440163  14.6467400  40.9191847  69.6746349
  14.1684628  41.3377142  70.3903961  15.5689526  41.0672665  69.8839664
  62.6877117  54.6565104  44.7525835  63.5684919  54.7342443  45.1192093
  62.8293133  54.3981218  43.8418627  16.8513585   7.7037787  23.6104798
  16.5784741   6.7946965  23.4866595  16.2800122   8.0329716  24.3043280
  81.9775581  37.1605778  45.6082010  81.3355446  36.5560055  45.2359772
  81.9494152  36.9900298  46.5496635  68.9725780  34.6941304  16.1718929
  68.2122040  34.7289991  15.5915082  69.7120571  34.5255065  15.5879688
  48.0359745  43.9089727  53.9994955  48.3554792  43.5906076  53.1552267
  47.9515886  43.1209421  54.5362663  68.2730913  53.2238150  44.5569706
  68.9713335  52.8806019  45.1145506  68.4536743  52.8547096  43.6924601
  55.0542736  45.4634857  62.3884821  55.6871891  45.0775099  62.9940176
  54.2027426  45.2921486  62.7906942  83.8335609  10.8716774  44.5287848
  84.6076012  10.3110683  44.4757271  83.2788754  10.4525006  45.1866961
  15.3088380  18.6011589  56.5718126  15.8681012  19.3394339  56.3301325
  15.7149506  18.2410896  57.3602629  61.6188908  26.8066502  32.0928597
  61.8572187  26.9465685  33.0092955  60.7190228  26.4820623  32.1262693
  18.2902854  62.6414298   6.7863859  17.9997151  62.1040081   7.5232567
  18.8506835  62.0601438   6.2722935  74.7089958  36.6291261  59.3164921
  73.9392090  36.5805292  58.7496567  75.2619600  37.2979903  58.9126539
  41.7554761  28.2247829  40.8444929  42.4425793  27.6303506  41.1457777
  41.9804478  29.0688610  41.2358427   8.6745358  20.2591753  44.4115305
   8.7002946  19.3187308  44.2350817   7.7416993  20.4689860  44.4564295
  63.3713055  20.3336453  46.0511351  63.7702608  19.9118865  45.2900887
  63.5483122  21.2662840  45.9283161  80.5792522  68.5804415  60.3289557
  81.0046101  68.8085365  61.1555576  80.0775433  67.7899122  60.5279207
  85.2095032  47.8985500   4.5028743  85.7946873  47.8668070   3.7460470
  85.0691509  48.8325977   4.6581003  -0.3645419  21.7750001  49.2026567
   0.2146340  21.5067768  49.9159908   0.1786614  22.3392320  48.6523819
  66.9324398  78.1635237  52.3914957  67.6550579  78.5279703  51.8803835
  66.1664534  78.2595634  51.8255663  81.6669464  11.1546397  35.0141764
  81.8547821  10.2170432  34.9710107  82.1818352  11.5350711  34.3025637
  68.7192059  10.9230709  40.9351683  67.8724194  10.4894495  40.8295679
  69.1725922  10.4045248  41.5998363  78.3615875  47.9151106  32.0403790
  77.6800919  48.5842419  32.1040893  78.6285830  47.7581835  32.9460931
   4.4820882   9.2031002  22.3666549   4.2688561  10.1357496  22.3361850
   5.2602006   9.1533226  22.9218984  65.3330088  18.7625420  36.6716576
  65.5705309  19.2767131  37.4433064  66.1449337  18.3244455  36.4165497
  34.7732299  67.6791977  12.3420490  35.1365130  67.5395821  13.2165589
  34.0036051  68.2294463  12.4874462  23.9241767  19.5804048  27.4303651
  23.8660431  19.1867328  26.5598059  24.8565602  19.5507228  27.6448727
  77.4609041  57.0326900  27.0008039  76.6971111  57.2083330  27.5503445
  77.6374292  56.1004019  27.1269417   8.6277962   8.1314075  18.9873028
   9.1583157   8.9089113  19.1612720   7.7740765   8.4773070  18.7270045
  62.7672911  49.0822029  43.8080072  62.3115444  49.8169708  44.2186689
  63.6678696  49.1517210  44.1248035  17.2123147  38.2231617  58.0824614
  18.0810261  37.8574061  58.2492208  17.0455838  38.0330420  57.1592712
  60.9313440  35.6358337  14.1527188  61.1736298  34.8788738  13.6192966
  60.4226685  35.2670217  14.8748386  79.7289944  19.3846941  59.3706131
  80.0205708  20.1560664  58.8846064  79.2280722  19.7395563  60.1050377
   9.2376034  62.6549386   8.2881655  10.1362364  62.4588560   8.0231299
   8.9618342  63.3569501   7.6987852  55.1020568  35.6439172   2.7515186
  55.7063525  36.2485491   3.1821932  54.2404215  35.8822422   3.0935969
  64.8727846  33.6489749  37.8914833  64.8510790  34.3717360  38.5186815
  65.1951408  34.0443158  37.0815301  29.8956149  47.1903508  17.4405636
  29.1209071  47.6772218  17.1594681  29.9728720  47.3820041  18.3751930
  69.6250868  49.8999357   3.0086267  69.9746513  49.4062281   3.7504396
  69.7045231  49.3028212   2.2647342  24.4376755  20.9532928  56.4849567
  23.7461472  20.4338741  56.8951035  24.1267491  21.8565464  56.5456295
  48.7457275  19.4047451  22.5807691  48.7136936  19.6313488  21.6513300
  49.0046120  18.4833109  22.5938606  86.6267872  20.4717183  44.5258188
  86.7598820  19.5452654  44.3253088  86.0381317  20.7833958  43.8383818
  18.6421395  18.4913492  55.6548071  18.9277554  18.5841131  54.7459316
  18.1110573  17.6950037  55.6588793  41.8772031  57.1301460  28.6890817
  42.3090077  57.9381418  28.4117293  41.5256692  56.7568302  27.8808212
  77.8922319  12.6678622  33.3353066  78.2267952  13.0735183  34.1351461
  78.3415461  11.8239534  33.2887363  75.7589491  79.5696283  29.2123222
  75.5457743  79.4894401  28.2826114  75.0733240  80.1354339  29.5673156
  17.2526353  59.2130004   4.3461622  16.6409056  59.5581995   4.9964394
  17.6514857  58.4540187   4.7717156  85.6806660  66.5617800  37.3738194
  85.5390167  67.5082827  37.3563313  85.3338814  66.2833261  38.2214236
  67.0379639  29.4235802  40.4688454  67.5062990  30.1497412  40.0570393
  66.1163425  29.6787953  40.4274797  30.4563673  66.2213791  37.8543282
  30.7049664  65.6486989  37.1287489  29.5154770  66.0802151  37.9593420
  78.3806038  37.1483254  57.0085335  78.8654137  36.7969680  56.2617159
  78.9797878  37.7790785  57.4077368   8.1952573  65.4294014  68.6324120
   8.8393307  66.0247517  69.0157557   8.3182240  64.6065331  69.1056919
  13.7953950  35.3990674  34.6921539  14.1981030  34.6426702  34.2656326
  14.5256329  35.8549404  35.1106858   9.2039300  63.5557699  49.4625759
  10.0457574  63.2934809  49.0900564   9.4135285  63.8381338  50.3528404
  30.6325722  22.7747488  45.5296469  30.1302910  23.3545303  46.1021805
  31.5183163  22.7885890  45.8922672  74.6813202  42.2106361  16.3232911
  75.1220942  41.6640568  16.9738317  74.4615459  41.6076279  15.6131411
  42.8546851  31.7020165  20.7361092  42.3147338  30.9653591  20.4497112
  43.0732958  31.4993619  21.6457142  43.4101662  24.5555422   2.2954001
  42.7897868  24.2014382   1.6582407  42.9817710  25.3409026   2.6358666
  68.7174654  37.3316050  61.6738796  69.2387486  38.1343794  61.6812134
  68.0181265  37.4943519  62.3068619  64.6760321  25.7336617  70.9159040
  65.3911543  26.1470199  70.4322004  64.8854494  24.7997642  70.9013987
  63.4988928  33.5357881  70.3359175  62.9432487  33.2275677  69.6200323
  64.2052364  34.0142798  69.9019146  80.5794239  27.2834325  62.7190924
  80.6167316  28.1456161  62.3049879  79.6526909  27.0452571  62.6933479
  85.5193806   4.4331497  19.3366063  85.8026505   4.8165351  20.1666713
  85.0580692   5.1430291  18.8899636  85.1298523  14.0518010  60.5660057
  85.0523663  14.7639740  59.9311543  85.4921341  14.4670045  61.3486862
  81.1512947   4.6821350  30.3872919  80.4367828   4.6191993  29.7534657
  80.7831573   4.3324700  31.1987305  79.2615747   2.6339561  56.2182665
  79.6880293   2.0622861  56.8566704  79.5939064   3.5085714  56.4203405
   0.5494214  39.6694851  31.5423393  -0.2285957  40.2081394  31.6864347
   0.5002404  38.9923239  32.2170734  54.6247864  66.4030218  17.8990519
  54.6497488  65.7340813  18.5832500  53.8597393  66.1763906  17.3703074
  17.2457410  43.7995434  60.7300949  18.0117417  44.1454887  61.1881256
  17.0943738  42.9429865  61.1296368  75.1082611  32.9144621  39.9168324
  75.6421471  32.1832848  39.6060634  74.2060804  32.6076198  39.8265886
  59.6544933  28.6697936  41.2910843  58.9014435  29.2561746  41.3639307
  60.1479435  29.0054965  40.5427265  75.0086880   0.2850645  50.4147005
  75.6179905   0.5619432  51.0990429  74.9113703  -0.6578241  50.5478287
  84.8072529  23.4894156  44.5605659  84.7833729  23.8034916  43.6566782
  85.7370949  23.3528638  44.7421837  38.7322767  72.2650910   7.8783661
  39.2785032  71.7293895   7.3031318  38.2989176  72.8831751   7.2898066
  56.0392332   0.9994216  31.9837070  55.9778690   1.0517925  32.9375029
  55.7197857   1.8477315  31.6762090  16.4050007  17.8500462  33.6312461
  15.7151414  17.6972353  32.9855061  16.8045235  16.9902372  33.7629318
   8.2927704  18.0954504  66.2788677   8.6956978  17.3542762  66.7311382
   8.1748772  17.7915108  65.3788948  21.4391463  33.5646092   1.8869986
  21.1620848  33.2094722   2.7316012  21.9631140  34.3337529   2.1108450
  60.1015528  70.1416779  26.8066788  60.3496225  69.2295266  26.9572425
  60.3568228  70.5950631  27.6101160  28.5343402  66.7772506  19.6212925
  28.8910239  67.3381399  18.9325203  28.0451434  67.3744987  20.1871647
  14.9672414  12.1752858  50.3082800  14.5657445  12.4345946  49.4789505
  15.7855988  11.7482233  50.0550079   2.6026536  33.7299514  45.3063107
   2.2983838  32.8224802  45.3184605   1.8001271  34.2514825  45.2923155
   1.0929299  38.9367509  49.3022490   1.8120671  39.2286444  49.8624945
   0.3072358  39.2959833  49.7143984  15.1113225  22.1071696  45.1720667
  14.2673970  21.7149186  45.3960133  15.6227399  22.0522022  45.9793234
  14.4688702  44.3033123  52.3223209  14.2880250  43.3844090  52.1244764
  14.2764187  44.7662401  51.5069103  10.2629090  61.8648529  35.0487304
  10.6660653  62.4663067  34.4226670   9.5607854  61.4407635  34.5553732
  11.8722153  59.7754478  44.9588966  12.3282719  58.9918852  44.6518517
  12.2007847  60.4787350  44.3988371  71.8890381  30.6264830  54.0441084
  72.4391317  30.6703568  53.2619953  72.2548723  31.2877011  54.6316338
  48.8403273   4.2718673   4.7689050  49.0955734   3.8744292   3.9363641
  48.3562946   5.0592589   4.5199963  13.0390931  57.1525717  57.5334358
  12.5329209  57.3046684  56.7353821  12.3900605  56.8731642  58.1791210
  24.5721722  10.4062498  50.8797932  24.2948819   9.6892166  50.3095293
  23.7810898  10.6494451  51.3607073  27.5172997  43.5591984  33.5073352
  27.2657014  42.6719952  33.2508278  27.9293633  43.9268017  32.7254748
  36.5774632  16.9693327  24.6217775  36.2006760  17.4642479  23.8942289
  35.9596348  16.2533629  24.7698092   2.3067094   9.1134834  37.7814198
   1.7994309   8.3939642  38.1571817   2.8405953   9.4351035  38.5078859
  86.5413849  61.8573736   9.5716728  86.3429062  61.8876742  10.5075802
  87.1076242  61.0921382   9.4715752   2.1948529   3.7916180   6.5414333
   1.9714165   2.9432651   6.9243258   1.3499261   4.1909644   6.3344342
  55.6332254  65.5063105  43.0328274  55.2088404  64.7715759  43.4758711
  55.5051804  65.3302383  42.1007156  75.2062035  59.0114450  42.9454422
  75.3795052  59.0651751  42.0055962  75.4074669  59.8867226  43.2765245
  59.6986008  70.7790804  63.6220741  59.9045897  71.0734844  64.5092773
  58.9078236  71.2641716  63.3862972  67.0202160  72.3442078  39.8311162
  67.4592113  72.8795147  39.1700864  66.8368340  71.5168095  39.3861222
  21.1187554  19.8481560  23.2308817  20.2169705  19.7263265  23.5278058
  21.3568688  19.0086532  22.8374720  71.3538933  39.4359326  49.6579027
  72.1724653  39.7871065  49.3074036  71.1899900  38.6479759  49.1397429
  14.9380971  45.3061056  14.0287471  14.9696828  44.5459938  13.4478343
  15.5091859  45.0722504  14.7604549  80.9116745  42.7010584  37.9408693
  80.2368832  42.5606966  37.2766542  81.0752106  43.6439705  37.9206395
  83.3812523  38.1243610  49.3400860  84.0883636  38.5975599  48.9015532
  83.1975365  37.3815036  48.7650728  24.6140425  38.9279683  13.5140480
  23.9274638  39.3247327  12.9779305  24.2684405  38.0661248  13.7464585
  76.1644316  41.7448425  47.5769758  77.0006704  41.9313812  48.0037546
  76.3530922  41.0124922  46.9902086   0.9559346  53.7251616  26.9503355
   0.0617600  54.0520287  26.8511200   1.4978600  54.3669653  26.4913893
  73.9171124   6.4011371  35.2669215  74.8381424   6.6611797  35.2846670
  73.9229012   5.4810184  35.5307031  18.1448079  61.3954449   9.3702769
  17.7380181  60.5304766   9.3194658  19.0653039  61.2163115   9.5622152
  48.6250497  39.5155740  61.1577845  49.2809106  39.5463204  60.4612732
  47.7894879  39.6307278  60.7052231  51.4221518   0.5501508  15.0627899
  50.5303996   0.8922910  15.1256585  51.7565863   0.5870866  15.9589028
  85.3939016  66.5180672  15.3476846  85.1480730  67.2429706  14.7729552
  84.6332796  65.9370304  15.3390706  66.5575981  57.0588827  57.5328493
  66.8614340  56.5132570  58.2582474  65.9242010  57.6558781  57.9311419
  27.3265649  34.4510794  69.6623039  28.2313634  34.4474483  69.9746609
  27.3424245  35.0149298  68.8889647   4.9479199   9.0583920  36.5548134
   3.9930058   9.1186780  36.5277600   5.2172661   9.1103798  35.6377625
  79.8503113  28.0491233  47.2882748  79.3692684  28.4713030  48.0000305
  79.1738796  27.6235747  46.7614174  85.5112934  12.0671618  42.7208900
  85.1504135  11.8582404  43.5824871  84.7571468  12.0389330  42.1320820
  77.2432232  52.8561020  61.1228180  76.6503239  53.5846663  61.3069201
  77.7720642  52.7713251  61.9161463   8.4940720  46.3940048  61.4860439
   9.3472863  45.9768295  61.6052580   7.9084683  45.9129620  62.0707703
  84.3135834  24.3540549  20.5038095  84.9082947  24.8195648  21.0919046
  83.6378765  23.9968276  21.0800409  71.2304401  71.4570045  36.3431740
  71.7653942  70.7732916  35.9399533  71.7094803  71.6998672  37.1354938
  20.6895734  54.0381718  26.8444800  20.8315468  53.2717991  26.2888241
  20.8145905  54.7850132  26.2589598  77.7169371  60.6486797  41.3286734
  77.1294498  60.1057434  40.8030128  77.2232485  60.8310509  42.1282005
  30.7311201  73.2806635  46.8388081  30.9404540  74.0887976  47.3071337
  31.0006332  73.4502745  45.9361267  60.8895159  79.8862696  46.1330509
  61.8267488  79.8359442  45.9451962  60.6312513  80.7572937  45.8316278
  81.4140606  63.4596682  40.3489590  80.6756401  63.2425213  39.7799087
  81.0905075  64.1726112  40.8996439  23.8322449   0.7811513  40.3144073
  24.5813180   0.2935413  40.6569910  23.0715085   0.3733868  40.7282019
   2.6807690  39.2272615  20.5336714   2.7468682  38.4460139  19.9845672
   3.2243157  39.8784542  20.0901198  11.0349370  47.0101881  55.3334475
  11.0365487  46.5985966  56.1976337  11.8852425  47.4457121  55.2740049
  78.7894249  78.3592319  62.2385359  78.0951118  78.9193439  62.5855684
  79.5049381  78.4466696  62.8683186   3.0211068  36.7949200  18.8698769
   3.6571503  36.1721110  19.2217052   2.1732808  36.4657807  19.1683435
  59.2061567  30.5488539  54.2490292  58.8363886  30.4786706  53.3689260
  59.7788525  31.3147211  54.2078352  78.0894136  37.4010396  47.4178457
  78.2650566  37.8829718  48.2260036  78.4314823  37.9645252  46.7237949
  61.5883923  26.0354567  45.7839584  61.2226248  25.1545358  45.7038164
  62.2106123  25.9714389  46.5085077  56.3111782  45.4397488  55.3212881
  56.1012936  45.2142859  56.2275696  56.8904257  46.1985683  55.3912449
  74.3618774  34.9217916  68.0366230  73.8955736  35.3570676  67.3229504
  74.3110895  35.5383110  68.7670708  79.0289688  11.5208399  21.3519788
  79.8008394  12.0448709  21.1378837  78.6105108  11.9936359  22.0714188
   5.5514336  14.0478182   2.0179014   5.9836674  13.7512827   2.8188229
   6.2070752  14.5892096   1.5782773  40.0281199  62.6816023  24.0499473
  39.7760399  61.8854702  24.5177746  40.3751476  62.3687721  23.2145166
  37.5140627  55.1021362  25.2894402  36.7200811  55.5472208  24.9932575
  37.8490885  55.6546331  25.9956527  40.6743153  62.9651679  42.0346546
  41.2858398  62.9048336  41.3007450  40.7499607  62.1209813  42.4794674
  17.1663443  33.3531728  64.7871075  16.8173519  33.2542606  63.9012997
  18.0219093  33.7640550  64.6629684  62.2679377  37.3847818   7.7269053
  62.8769398  37.6729488   8.4068370  62.2893286  36.4290619   7.7756101
  83.3182049  43.6977625  18.7182391  83.6747456  43.7253237  17.8303468
  82.4761486  44.1481209  18.6522937  13.6966706  29.0171123  32.7578998
  13.6852074  29.2787337  33.6785817  13.1842614  28.2090235  32.7321339
  12.3662282  21.2066054  45.1882219  12.2802926  20.4506755  45.7691002
  11.9894219  20.9148288  44.3580914  21.6053200  16.3668787  30.1207232
  22.4047566  16.5251660  29.6186471  21.2428380  15.5636728  29.7469592
  26.5113545   4.6778226  41.8653345  26.8263913   4.3956968  41.0066223
  26.4893819   5.6331909  41.8103743  25.8961733  73.1942720  61.3861561
  26.7062386  72.8212906  61.7338800  25.2802046  73.1531198  62.1176720
  31.2747836   0.7560517  57.2479868  30.3854942   0.9481651  57.5454569
  31.2036276  -0.0938691  56.8134689  70.2256727  28.3959198  48.5000134
  70.2521133  27.5571561  48.9604568  70.3842402  28.1709766  47.5832319
  11.9104544  59.1632249  67.2521271  11.8622604  58.2251754  67.0678095
  11.4891115  59.2615034  68.1059660  25.7113099  25.0041270  23.5812211
  25.8070421  25.1880980  24.5156837  25.4721999  24.0780759  23.5426927
   8.6274148  23.1681752  69.3086958   8.9772320  23.8250065  69.9107170
   9.3559361  22.5646234  69.1630554  67.5809057  68.9251471  12.3631036
  67.8302629  68.3419479  11.6462135  68.1636103  69.6790911  12.2722471
  17.8695012   7.1967804  39.3415666  18.7903310   7.2745371  39.0920377
  17.6907063   6.2570357  39.3077230  18.9329434   4.1548714  55.0546598
  19.4195557   4.5078760  55.7995272  18.8133050   3.2285446  55.2640295
  50.4768856  54.4442202  47.4210644  50.2817877  54.1325761  48.3048344
  51.4275606  54.5553423  47.4107075  59.2956598  71.8023361  12.3682725
  59.2871054  71.7674960  13.3247995  59.2835386  72.7370847  12.1625304
  48.1259577  41.7965836   0.4417338  48.4680693  41.4789447   1.2773766
  47.5189631  41.1137055   0.1563181  44.6317680  71.2195922  70.5917072
  45.3496893  71.3091494  69.9649715  43.9581831  71.8196715  70.2716684
  45.0002590  43.5187598  67.7376549  45.1268402  42.6898880  67.2759412
  45.8821598  43.8797959  67.8278477   8.1586552  18.1185520  56.1365795
   8.5957051  17.2788060  56.2781763   7.4826813  17.9299903  55.4856348
   5.8926201  -0.0068076  22.3934960   5.0100804  -0.0658308  22.0276022
   6.0633183   0.9329218  22.4567485   7.3834515  10.6425774   0.7796556
   7.4547291   9.7581416   0.4205965   6.6652775  10.5879617   1.4101197
  12.0254803  26.9660807  32.9334927  11.6639710  26.1831927  32.5180054
  12.0433713  26.7552280  33.8670087  63.3652210   5.9516120  30.8046770
  62.7254009   6.6339666  31.0077763  63.1305647   5.6575739  29.9245000
  71.9048079  79.5821906  36.5965915  71.4886721  79.4578225  35.7436013
  71.1763437  79.7346408  37.1985269  54.2904520  15.5958712  45.0459146
  53.9715958  16.3889861  45.4766464  55.1773214  15.8175159  44.7620583
  55.7357836  10.8578837  48.2421684  55.2016258  11.6126227  47.9946280
  56.0555935  11.0682106  49.1195011  75.4754400   9.9518371  18.6752737
  76.0649538  10.0037217  19.4276106  74.6532583  10.3286064  18.9887989
  84.9037170  12.1049643  12.0251262  84.5493317  12.9872930  11.9149339
  84.6888351  11.8716109  12.9282343  81.5682330  24.7809961  66.3053132
  81.5074458  23.8287356  66.3810517  82.3438516  24.9292090  65.7643132
  72.1203566   9.2907208  14.4614947  72.5595427   8.8958430  13.7082219
  72.6228380  10.0850892  14.6423912  69.7802313  76.7867053  35.8417082
  70.1277121  77.5871945  35.4483771  70.4082830  76.1072279  35.5965710
  10.2284432  40.3337479  20.2491832  10.1184083  40.5195236  19.3166542
  10.6275082  41.1272526  20.6060195   7.9289404  54.6570780  61.1567597
   7.6782003  55.5748167  61.0513078   7.1292082  54.2228868  61.4536498
  86.0799980   0.4257457  43.8560724  86.2757969   0.9600949  43.0864191
  86.9290924   0.2923012  44.2773199  84.5726395  17.9734325  67.7997589
  84.6263599  17.9203367  68.7539721  83.7772179  17.4896181  67.5773621
  25.0329605  55.6130364  67.1509717  24.0941444  55.4444411  67.0708100
  25.1006428  56.5657189  67.2145985  40.7974530  11.7776263  20.9883714
  41.3773442  11.3638043  21.6276789  41.3035775  11.7857766  20.1759624
  76.5902479  74.2218859  56.6694927  77.1891363  73.8213528  56.0393000
  77.1180590  74.8861195  57.1127081  16.1878586  24.2853642  21.9676185
  16.0744191  24.5001125  22.8934956  16.7070962  23.4812379  21.9701290
  37.2200735  77.2487668  41.4485884  36.8173655  76.7249669  42.1411848
  36.5488298  77.8885005  41.2110996  83.1632233  31.6813946  27.6781869
  83.5887814  32.4830985  27.9821610  82.3499584  31.6364741  28.1810021
  54.6262170  21.3498878  65.6225061  55.2997494  21.9846320  65.3782129
  54.6142769  21.3696575  66.5794277  74.4108534   9.7414386  70.3492975
  73.6577272  10.3201199  70.2302980  74.8514509   9.7439331  69.4995356
  25.6643963  24.6483350  26.3167095  25.1528454  25.1335931  26.9640684
  25.7281495  23.7635040  26.6762090  58.2446630  64.4831289  33.2104421
  58.0326422  63.6344410  32.8218460  57.7371367  64.5086361  34.0216160
  73.7774706  11.3757789  58.6954451  73.1678200  10.8381820  58.1899261
  74.6034002  10.8928323  58.6664963  32.9519654  20.0913954   8.5465389
  33.0287553  20.6668520   9.3075800  33.1401253  19.2169893   8.8874847
  22.8135436  54.0073370  22.1386875  22.6076358  54.9414073  22.1019997
  23.4802287  53.9356886  22.8217949  69.7708035  25.4659748  26.9237757
  69.9333715  26.2311411  27.4754310  69.4736385  25.8305359  26.0900950
  76.5709066  12.5706875  10.7508755  76.5826321  11.6842532  11.1118877
  77.3022461  12.5875831  10.1335526  10.2920533  28.9695215  44.5329237
  10.1121712  29.2177391  45.4397106  10.3879643  28.0175161  44.5597172
  59.7209978  30.5216408   6.6674370  60.2309275  30.8540606   7.4061543
  60.2125931  29.7598028   6.3605702   1.9201470   1.5867074  27.5620747
   2.6594926   2.1935868  27.5260973   1.2034226   2.1038936  27.9295707
   9.6870804  39.5249462  34.1613245   9.3017769  38.6898279  34.4265509
  10.2042008  39.8011851  34.9179673  84.8561478  36.4285731  52.2416210
  85.3262806  37.2305918  52.4695921  85.2472591  35.7552242  52.7982807
   4.4708920  63.9016342  23.4093833   4.7236825  64.8238564  23.4522986
   5.2931882  63.4345198  23.2614899  50.9793758  37.2275496  55.7325649
  51.6935062  36.6865182  55.3956223  50.3383064  36.5987206  56.0639811
  11.9046157  41.7680030   3.3796086  12.7462189  41.7534369   3.8353743
  12.1201985  41.5548521   2.4716868   0.3565121  12.8408778  21.7601895
   0.7194806  11.9570601  21.8180871   0.9583855  13.3810008  22.2722888
  56.0700623   6.6195562  68.4774659  55.2407852   7.0789077  68.6098955
  55.8625141   5.6991985  68.6390106  56.4666136  75.8101393  45.5719233
  56.0295351  76.4274878  44.9853420  55.8680017  75.0650836  45.6246758
  74.2334652  33.0257702  51.9653416  75.0494814  32.5278234  51.9163370
  74.4166517  33.8335848  51.4856434   1.9738205  80.0378990  32.1072769
   2.4739202  79.3636983  32.5672626   2.6374038  80.6378481  31.7667627
  12.5206757  40.9489250  53.8493347  13.1736279  41.2087059  53.1994152
  11.7689419  40.6606483  53.3316183  63.7594843  15.1976812  16.2771249
  64.6533823  15.3481841  15.9696805  63.6444330  14.2489147  16.2238610
  72.2562599   5.2147740  26.1223054  72.9796076   4.9391285  25.5592632
  71.6187143   4.5036447  26.0585666  74.1266870  16.8948114  41.7990208
  74.3479967  16.2829566  42.5010824  74.4544506  17.7401721  42.1058893
  56.5442904  62.6326467  24.0421271  56.7598589  61.9507647  23.4058905
  56.3327654  62.1540988  24.8436737  60.4662228  21.9517612  38.5258365
  60.5018091  21.0340023  38.7954354  60.9798002  21.9843888  37.7187419
  59.3998528  25.1595712  69.1026354  60.0395870  25.7727170  69.4646072
  59.8891020  24.3455195  68.9835215  24.0876294  28.2904577  32.9938078
  23.6474705  28.3552432  32.1462870  25.0017358  28.1086349  32.7756763
  64.7256947  11.0232008  44.4312668  64.3910646  11.0646081  43.5354233
  64.1211176  11.5652966  44.9380684  12.0951367  41.4704037   8.2233047
  12.6882458  42.0363140   7.7291393  12.0280457  40.6747007   7.6954913
  21.0321999   1.6004978  64.3533850  20.2753354   1.8564209  64.8805380
  21.0203648   2.2024608  63.6092567  80.4687309   3.7102199   6.5399832
  80.6732368   3.0247760   7.1760434  81.1821365   3.6667198   5.9032834
  53.0269106  77.6035736  12.8107619  53.4369619  77.0438603  13.4701657
  52.5623568  76.9954495  12.2357798  63.7693882  31.2561655  30.0664163
  63.7457132  30.8523560  30.9339452  64.6950531  31.2465334  29.8229265
   9.8876954  11.5292645  50.7565069   9.5835877  10.6726670  51.0564947
  10.2324486  11.9502938  51.5439796  51.2017600  80.4967998   1.8451800
  51.2372534  80.0920271   2.7118601  51.1641662  79.7583531   1.2373079
   5.1037842  32.0437169  26.5365601   5.3850490  32.4637723  25.7237411
   5.5693913  31.2074637  26.5475678  21.4120078  41.6512537  68.7925577
  21.2821102  41.2587643  69.6558666  20.7094574  42.2967005  68.7147331
  22.1929693  49.9712229  25.7975793  21.5635157  50.6445599  25.5394316
  23.0449867  50.3348207  25.5565453   9.8963535  62.7986050  46.0023022
   8.9537203  62.6338625  45.9791899  10.2755725  62.0941257  45.4768181
  25.8662732  44.2473541  40.3340687  25.7570396  43.6600344  39.5861687
  24.9908270  44.3152680  40.7151379  11.2372267  53.3923149  45.6298065
  10.5509079  53.7675190  46.1815500  12.0105934  53.9255428  45.8136702
  66.1467735  64.2459844  29.7876133  66.5201609  64.2238544  28.9065231
  66.4749186  65.0615095  30.1663937  12.1183968  50.8956909  70.6399965
  11.7674029  51.1588192  69.7892332  12.4336338  51.7103577  71.0313797
  71.4434704   4.9696133   3.4824433  71.4911624   5.2383969   2.5649943
  71.9375285   4.1505454   3.5180535  41.7371099  74.3151926   4.5224108
  41.6944961  73.4088515   4.8273100  42.6463704  74.4328807   4.2474093
  29.8782071  32.2958110  26.7282547  29.5421466  32.1340821  25.8466973
  30.8203443  32.4141858  26.6074433  26.8403768  63.8060473  15.5483784
  26.2948371  63.0205082  15.5090298  26.6183527  64.2100762  16.3872399
  60.8429116   4.4229911   3.4828533  60.5006244   4.5362351   2.5961460
  60.3859636   3.6521456   3.8193478  32.4393527  59.4394814  35.6843151
  31.5771799  59.7991668  35.8929218  32.4366654  59.3482648  34.7314705
  48.1010887   8.6430857   8.3953966  47.8144940   8.7713263   7.4911560
  47.3065778   8.7570880   8.9169230  63.3450821  36.1124966  54.3342652
  63.4003111  35.3309319  53.7844147  62.4517062  36.4319155  54.2074646
  34.5522873  66.4299272   3.4850229  35.0074141  66.5528511   4.3180765
  34.1875313  67.2913002   3.2819952  20.5061769  42.6239443  54.6159983
  21.2301302  42.2096443  55.0855541  19.7236812  42.3560715  55.0978470
  18.6514175  44.6160030  52.8745604  19.1179180  43.9704800  53.4055090
  18.8358843  45.4537678  53.2992363  16.3675289  63.4708928   4.1581167
  16.5772204  64.4036125   4.1102041  16.8149797  63.1650303   4.9470867
  28.0920905  72.3289822  41.9716705  28.4674644  72.4112819  42.8483357
  27.7066421  73.1870745  41.7946400  40.9416577  19.4655488   1.2565102
  41.0982176  19.8993418   0.4177345  41.0002431  20.1680157   1.9040741
   4.0593314  18.4831512  63.0848408   4.3563470  19.2820394  63.5204887
   4.5812109  17.7857387  63.4816885  36.8929982  23.3047986  50.3656721
  36.5667892  22.4658394  50.6911993  37.6877952  23.0811310  49.8814154
  36.6752486  71.3914107  58.5325207  36.9780443  71.8160199  57.7298702
  35.8210109  71.7872189  58.7052788  75.7701098  41.9052839  55.8919525
  75.8575332  41.0666990  55.4387808  75.1692497  41.7252922  56.6150045
  32.6135739  10.0822709   9.2167534  31.9970306   9.9201081   8.5027470
  32.0728024  10.0746510  10.0065293  60.8714979   8.2936499  10.6814827
  60.5248859   7.4047635  10.6042065  60.0960107   8.8448165  10.7866921
  -0.1470684  50.3564501  71.0697222   0.7786170  50.1726294  70.9098816
  -0.5734753  50.1867723  70.2297115  18.7949049  48.2304811  69.0777588
  19.6806073  47.8702307  69.1222572  18.7160051  48.7700653  69.8644352
  52.3393294   1.6497014  30.1220860  52.6969030   1.2234566  29.3431820
  51.7466887   0.9999106  30.4999508  63.5011229   7.3801110  17.6381363
  63.5894337   6.4327738  17.7429547  63.5515835   7.7254412  18.5294499
  11.4313042  67.1755648  64.4653177  11.8043327  67.3097324  63.5940647
  11.2682223  66.2335920  64.5135736  57.4149005  80.5504488   8.8079037
  58.3004968  80.4397820   8.4619202  57.0654551  79.6608733   8.8606228
  33.4240794  37.6516008  53.2121706  34.3237543  37.3570871  53.3538723
  32.8827763  36.9568110  53.5869884  20.2480410  73.0013465   2.0481791
  20.0692491  72.1339654   2.4113764  21.1695640  73.1610368   2.2519602
  12.3128326  81.3692674  56.8767691  11.7774876  81.7784649  56.1969233
  12.9681166  82.0314794  57.0965767  40.0041207  29.2494319   7.7620091
  40.2684697  28.5497592   7.1646752  40.5494079  29.1205619   8.5380806
  34.4769154   4.8094224  48.5041809  34.8953067   5.0441121  47.6758671
  33.6098532   5.2121877  48.4571123   4.5530298  33.1596494  68.0248880
   4.3056774  32.7879596  67.1781921   4.3493375  34.0915966  67.9460478
  31.6982865  36.8131924  68.3194590  30.9134746  36.8610144  68.8653660
  32.3745751  36.4675283  68.9020252  42.1493308  71.9768022  25.9033932
  42.7096288  72.1223997  25.1410927  41.4508645  71.4067124  25.5818810
  80.4142290  38.4286952  58.3665943  81.0003507  37.9848695  58.9795494
  80.8740270  39.2364430  58.1377697  82.8191551  36.1463902  36.8238224
  82.9122814  35.1958153  36.8868412  83.6973318  36.4592002  36.6065945
  82.6263818  69.4832850  68.1497288  83.5121101  69.2629290  68.4381008
  82.2393697  68.6436462  67.9018116  14.3916428  61.9794655  66.9420433
  14.1115105  61.6611004  66.0839033  14.2731607  62.9281855  66.8959093
  58.3793915  23.1247113  20.2201809  57.9622103  22.6849816  20.9610047
  59.3176367  23.0094311  20.3706421  81.6295415  45.0303984  69.1789436
  81.7853936  44.2399120  68.6621523  82.2156822  45.6846333  68.7986135
  17.2318828  52.3250198  45.6393003  17.7623963  53.0621862  45.9415722
  17.5506473  52.1474743  44.7543716   9.4964103  68.6931847  18.4320702
   9.6922235  69.3139385  17.7302517  10.3523938  68.4605478  18.7917961
  52.4809933  77.3208570  64.2542362  53.3677816  77.1877956  63.9193678
  52.5967026  77.4437714  65.1964331  57.7281897  81.4473318  20.9440674
  58.1690185  81.1788772  20.1379456  58.0744450  82.3207687  21.1269535
   4.5541233  78.3418941  64.3138409   4.1864806  78.9586639  63.6808634
   4.4376343  78.7707853  65.1616096  26.1491628  78.4851717  11.6848816
  25.7391749  77.7175878  11.2861885  26.7478983  78.8126730  11.0136952
  85.4992294  72.7364969  56.7772102  85.9614359  72.1303892  57.3562002
  84.5730182  72.5965548  56.9741392  85.5717691  22.0360730  17.1011891
  84.7373828  22.3717282  17.4288525  86.2113794  22.2956631  17.7643170
  60.5958774  13.1589816   4.3582644  60.4554391  13.6660597   5.1578774
  61.3383114  12.5903866   4.5625271  75.9941765   3.3309624  35.5279984
  76.2045917   3.4549687  34.6024765  75.2202746   2.7676747  35.5242886
   9.2857033  50.7742500  49.3767309   8.3419287  50.7957029  49.5350409
   9.5709252  49.9368906  49.7423840  83.4199264  59.7011900  60.2802753
  82.6785969  59.2201805  60.6480980  83.0199950  60.4209423  59.7921753
  79.8803430  38.4906411  31.6981912  80.0914043  37.7959061  31.0744715
  79.1148716  38.1637359  32.1708608  32.0104655  32.8405259  18.9883293
  31.7510399  32.5903580  18.1015743  32.8896674  32.4766228  19.0923180
  77.4563846   0.4345963  19.4000973  77.8637704  -0.1469400  18.7581600
  78.1859621   0.9319327  19.7697033   4.8953241  51.4470625  64.3424368
   5.1350188  52.3492098  64.5543432   5.4666740  51.2129354  63.6110163
  20.1529870  14.2921755  19.5144619  19.6459756  13.4907220  19.3846764
  20.0492892  14.4932053  20.4445519  11.0204506  55.6471634  59.2579985
  10.9949136  56.1509037  60.0715303  10.1307583  55.7085228  58.9102697
  77.3584978  56.7067061  15.7999958  77.7708237  56.6330277  16.6606869
  76.4511530  56.4386998  15.9453549  48.6477580   6.9176791   0.1996531
  48.4127339   7.7214215  -0.2640234  48.4266761   7.0952103   1.1138930
  66.4480059  73.6861776   6.6500963  65.6379811  73.9770316   6.2311758
  67.0831410  73.6377095   5.9356131  75.3970822  38.5958693  25.6462921
  75.7316944  39.4915841  25.6905522  75.2128407  38.4546301  24.7176708
  76.0725006  27.3350356  28.4225239  77.0295688  27.3476336  28.4322514
  75.8428332  26.4281914  28.6253037  83.1456217  56.4861081  -0.2217995
  83.1529149  56.5706513   0.7316317  82.2579345  56.7366383  -0.4776846
  10.9659159  38.6804390  40.0575161  10.3545952  38.7661767  40.7890654
  11.8253088  38.8531160  40.4420376  78.6539802   4.9296019  16.1531128
  78.3986768   4.1356013  15.6834091  78.3415565   4.7899792  17.0470490
  45.4429392  68.3132766   3.3331837  46.1430184  68.9314769   3.5428299
  45.3734748  68.3446668   2.3790230  34.2161164  28.5223649  11.7260899
  34.8645053  29.2159579  11.8475689  34.6853242  27.7158139  11.9395031
  31.0164428  38.2734179  63.2772636  31.3529015  38.9453220  63.8701963
  30.3026867  37.8605962  63.7634325  62.4630311   6.4936659  13.6736168
  61.5498307   6.2072489  13.6898388  62.8357711   6.0621379  12.9048027
  51.3120254  21.9396660   5.7738747  52.2335413  21.8793986   5.5220665
  51.1420133  21.1303256   6.2558521  17.8229718   3.6048650  68.8525438
  16.9377307   3.8840818  68.6188412  17.9229705   3.8668393  69.7677517
   3.7889752  13.1437657  16.6247524   3.0081925  13.3765099  16.1223187
   4.5186457  13.3332131  16.0349049  73.5906171  73.3614302  48.0439234
  73.7423562  73.4803152  47.1063375  72.6724862  73.6008453  48.1702137
  22.6924658  11.7528462  47.2969532  22.6286530  12.6755011  47.5436687
  23.6306143  11.5638804  47.3170376  15.2602208  50.0263643  58.7216663
  14.6712875  50.4145145  59.3687582  15.1871192  50.5984163  57.9577017
  62.0340249  15.3363249  34.4895424  62.6890111  14.8821328  33.9595093
  61.7510724  14.6845601  35.1309265  11.2768206  13.0899546  25.2217163
  11.1489901  13.3841632  26.1235584  10.5974993  12.4292395  25.0867523
  19.9486125  52.8771830  70.0235748  18.9944398  52.9374790  69.9771833
  20.1881981  53.4354734  70.7632685  13.0806384  23.3802436  36.6047539
  13.2515082  23.5224030  37.5357880  13.2276091  22.4433921  36.4745869
  32.6190376  33.2178807  67.0822334  32.1849680  32.3706818  67.1825790
  32.0796013  33.6897254  66.4477205  10.9322700   2.6048920  10.4788841
   9.9757681   2.6210997  10.4461445  11.1367688   2.3394988  11.3755287
  65.6115922  16.4737055  18.8825192  65.7773563  15.6915114  18.3562817
  66.3588240  16.5241215  19.4786228   7.7094489  57.6166248  61.3582373
   8.6549062  57.4875975  61.2827778   7.5830251  57.9468727  62.2477198
  32.1241732   6.0093831  49.1972160  32.3031185   6.9492005  49.2283392
  31.5586708   5.8984326  48.4329319  68.1627926  38.7492106   3.9091791
  68.9287993  38.5289691   3.3791269  67.9614707  37.9436944   4.3854632
  36.7469677  23.8100264   9.6339668  36.4367017  24.5203135  10.1956238
  36.2298354  23.8947604   8.8329472  68.9158337  61.4376210  48.4998001
  68.3910291  61.8809389  47.8332581  68.5210077  61.7022751  49.3306507
  52.2367373   3.1688140  26.0789551  53.1313097   3.4882949  25.9610428
  52.2891947   2.2328684  25.8853401  22.5797987  53.6422062  44.8622227
  22.3423171  53.0657053  45.5885029  21.8463612  53.5721874  44.2511606
  46.7894129  72.4563430  20.8552326  46.2323932  73.0534051  20.3557552
  47.4710564  73.0175375  21.2249054  19.6938775  59.6462689  11.6170372
  20.4545234  59.8537456  11.0742630  19.7404615  60.2687834  12.3426594
  12.7915558   2.7838204   6.1682095  12.2365937   2.1518967   5.7111229
  12.6771912   2.5762389   7.0956053  84.5107987  43.4118223  47.0552778
  84.1934898  43.6892796  47.9146767  84.7042956  42.4803305  47.1606874
  74.2310306  28.0307553  12.4381413  73.7572977  27.5505231  13.1172527
  74.8948428  28.5284255  12.9155411  28.0223131  34.7341585  38.2088470
  28.5652161  34.9322343  37.4457908  28.4451175  33.9767098  38.6134958
  58.9447131  17.0463059   3.8684763  58.8211938  17.3284457   2.9621805
  59.2142291  17.8394530   4.3316282   9.2291737  67.4109650  52.1074438
   9.7301865  67.0165205  51.3935566   9.1110188  66.7006779  52.7381277
   2.5901971  55.6426022  35.6581082   2.3491773  54.7432397  35.8801140
   3.3630046  55.5527566  35.1004948  17.4766719  21.1100984  60.5212402
  17.5426924  22.0128107  60.8326626  17.1194541  21.1874533  59.6365690
  76.9081434  13.4400056  13.9922680  76.3435134  13.5007451  13.2217278
  77.7531561  13.1509755  13.6478199  74.6416434  16.6618559  14.8543991
  74.3330988  17.4696229  15.2649368  73.9054510  16.3701222  14.3166794
  54.6609704  32.4161004  53.9939451  55.2710525  32.8017091  53.3651829
  53.8141577  32.8052758  53.7755823  18.7742600  36.9678805  36.0070576
  19.0735516  36.0866854  36.2310089  18.4066853  36.8797133  35.1276554
  61.1596267  65.4915117  22.8283657  60.6498925  64.8858617  23.3665051
  60.6775014  66.3171171  22.8748478  83.3154687   7.5319216  32.4266590
  83.9114818   7.5510094  33.1754078  83.4303483   6.6589186  32.0512833
  49.1289759  39.8677444  63.6743402  49.1622400  40.7772017  63.9710140
  48.9507246  39.9283242  62.7358389   8.4622297  10.9427378   9.1717829
   9.4086227  11.0170243   9.2944874   8.3610568  10.6310151   8.2724394
   2.5153534  67.5686906  17.4390473   1.5689175  67.6236557  17.5712074
   2.6298158  66.8424867  16.8260540  29.7760138  43.0628846   8.1435312
  29.9738917  42.9842351   9.0767492  29.1661534  42.3465989   7.9668106
  11.0375390  11.5034745   2.3186506  10.6519804  11.1975596   3.1396212
  11.9047627  11.8242238   2.5661959  11.0827169  63.3410142  20.9719052
  10.7766494  64.2361710  21.1176647  10.3044948  62.8663800  20.6798042
  53.3603605  22.5200341  16.2299790  54.0937012  22.6399539  16.8333592
  53.2975110  21.5718625  16.1148514  12.9659295  62.6788378  58.3924389
  12.7470505  62.7452183  57.4629688  13.6645174  63.3205795  58.5204220
  47.3354582  76.4753769  15.4828800  47.1652774  75.9291409  14.7154774
  46.4850847  76.5521835  15.9155430  71.4520582  33.8017581   6.5233864
  72.0538589  34.5282672   6.3613619  71.1677476  33.5272668   5.6515755
  72.3624126  40.9491027  39.9720062  73.2499783  41.0160710  40.3241123
  72.4162094  41.3569538  39.1077198  55.8087152   0.9448359  34.6290077
  55.2253505   0.9041569  35.3868069  56.5779614   0.4392836  34.8915066
  25.5982995  36.4114451  52.9488897  25.5316520  36.2788081  52.0032692
  26.4334702  36.8634176  53.0690765   9.5956163  74.4607376  22.7984108
  10.2863113  74.5932768  23.4477200   8.8058655  74.3066715  23.3168568
  65.4051110  17.8818104   1.8578734  64.8291817  17.1294329   1.7219652
  65.2572825  18.1350920   2.7690424  84.0687713  22.6530478  35.8515515
  84.5942005  21.8553469  35.9134545  83.7933883  22.6879666  34.9354901
  48.6902865  25.2370474   1.0091700  49.4794437  25.1316378   0.4778017
  48.2905051  24.3673918   1.0194124  39.2450925  30.8241055  40.0919975
  38.5578534  30.1578400  40.0967278  39.3649801  31.0510895  41.0141339
   8.0616102  15.9720776  26.6976418   7.7602682  16.8559144  26.4872803
   8.9778409  15.9592030  26.4208950  44.1297416  35.9525897   5.6305041
  43.4379451  35.3045760   5.4973663  43.7301557  36.6178288   6.1908783
   3.3839545  26.8150447   9.7065796   2.5806389  27.3352931   9.7227444
   3.6133227  26.6998742  10.6287254  61.9630342   2.6564810  15.5341686
  61.3015642   3.2522891  15.1824440  61.8076822   1.8296740  15.0775685
  15.8772576  59.8838949  62.9266787  16.1208272  59.6668434  63.8265657
  16.7108142  59.9372673  62.4591684  86.2841491  21.6696763  65.2919531
  85.7760265  21.0673189  64.7486210  87.1949196  21.4975166  65.0530148
  72.0164904  30.3817008  12.8947033  71.6138491  29.7810385  13.5218491
  72.8301987  29.9486039  12.6367535  76.2340173  17.3551295   7.2189440
  75.3966412  16.9442103   7.0040573  76.7354688  16.6645358   7.6523651
   0.0405592  72.1513224  66.3880301  -0.5906638  71.6276646  66.8815565
   0.8121998  71.5897131  66.3145304  40.2297831  46.3900089  67.1615553
  39.3105412  46.6448975  67.2406912  40.3428936  45.6966257  67.8116798
  82.6650574  44.0865040  56.2009001  82.8617077  44.0199423  55.2664852
  82.5816917  45.0264025  56.3617516  80.1807770  28.8401387  11.9142880
  79.9528989  28.7445948  12.8390373  79.8868140  29.7217629  11.6850151
  56.9944612  70.2033971  12.4911179  57.3620502  69.7232174  11.7491402
  57.6225726  70.9065722  12.6562180  80.3713214  18.6841667  65.2152681
  79.4594502  18.6396396  64.9276209  80.6718641  19.5457494  64.9261618
  19.6006167  51.5194225  67.5147915  19.5791841  51.9399309  68.3744097
  18.6795819  51.4185190  67.2744894  61.9073200  38.6525750  68.7265539
  62.3295975  38.7733245  69.5770454  62.0990372  39.4587016  68.2473516
  73.1445639  63.3079623   7.4598087  73.6360113  63.7801550   6.7876877
  73.6522858  63.4348224   8.2612766  84.3870060  78.8821863  16.9657292
  85.3038256  78.6197923  17.0483269  84.2833893  79.5930146  17.5983586
  10.7420938  80.9777235  12.9019226  10.6161563  81.8693708  13.2264675
   9.8655490  80.5932664  12.9116215  63.8218680   7.9443858  37.8763546
  64.5228305   7.3183797  38.0580105  63.5637602   7.7595637  36.9733299
  58.3757781  53.6404202  25.5006756  58.0159930  54.0105984  26.3067402
  59.1552159  53.1623051  25.7837261  82.0368331  38.3455896  41.3926744
  82.1098998  38.7178302  40.5138493  81.5230125  37.5469708  41.2725592
  68.7993988   6.1783574  27.8646053  69.1276344   6.7348406  28.5708775
  67.9962346   5.7940934  28.2160343  70.5497169  56.4723969  45.6041479
  70.6048107  56.4912701  46.5595770  71.2866735  57.0083618  45.3111124
   8.2561073   0.1314662   4.9774899   7.4709878   0.4099724   4.5060505
   8.6546931   0.9468386   5.2816834  75.9345710  55.8904505  56.8464756
  76.2850165  55.0386333  57.1069145  76.6674232  56.4957094  56.9596910
  28.1667495  21.3671684  48.9644623  27.3112774  21.1788440  48.5785437
  28.7964272  21.0296845  48.3274031  50.6600549  15.7007859  10.4865898
  50.0506016  15.8095572   9.7565426  50.7733026  16.5840409  10.8376755
  57.3269539  11.9179652   6.9164671  57.8777644  11.2115214   6.5791668
  57.8570191  12.3300336   7.5987162  44.4742445  72.3066853  14.7739185
  44.8890535  71.9300316  15.5499996  43.8132183  72.9049944  15.1222004
  26.6735816  60.1604033  66.0742283  26.7512250  59.8807955  65.1620722
  25.7311320  60.2421761  66.2202787  84.7237882  29.3599246  32.3910107
  83.9275226  29.8911164  32.3964848  84.6512588  28.8277695  31.5986790
   3.8281712  25.9556315  12.2943081   3.1834468  25.2839778  12.5166668
   3.6005578  26.6999266  12.8514828  70.8925327  32.5095532   3.9909567
  69.9358591  32.5051615   4.0223898  71.1014589  32.7607749   3.0912508
  15.6004843   2.2317860   8.8966335  16.2978158   2.2668097   8.2418551
  14.9476370   2.8586171   8.5850252  19.3381533  23.1656907   5.7176174
  19.4217763  23.9830182   5.2264895  19.7730336  22.5118134   5.1703037
  51.0521698  69.3971920  68.4505129  51.3859272  69.5359802  67.5641870
  50.3016806  68.8143301  68.3352947  79.4035610  35.2640221   7.1241583
  78.8723573  34.6317122   6.6401781  78.9434108  36.0963080   7.0155443
  15.6749225  17.6394963  40.7241869  16.3338315  17.5926888  41.4169216
  15.9802651  18.3420813  40.1502800  67.9940471  16.6470549  20.3906025
  68.0967018  17.2041342  21.1622013  68.3318302  15.7942603  20.6642403
  85.2902254  59.7036552  57.9545212  85.2757239  60.0815535  57.0751953
  84.5880418  60.1565695  58.4214687  34.8733314   5.5951426  24.4076885
  34.5574340   4.8044799  23.9703144  35.6413373   5.8586619  23.9007725
  24.0709043  45.5989599  64.7716761  24.1657424  44.6604300  64.9341631
  24.1624737  46.0019636  65.6350613  15.1829302  54.4093847  66.0303164
  16.1391985  54.4005823  66.0716152  14.9805915  54.1974688  65.1190615
  47.3657481  77.9720710   4.4025864  46.5906255  77.6539467   4.8654188
  47.6892416  78.6921476   4.9439491  28.5973859  44.9031973  68.3218813
  28.2426023  44.0856552  67.9726124  28.0657029  45.0831032  69.0972424
  48.7026548  49.0297651  66.6272497  48.4670591  48.7773800  67.5200176
  48.6229610  49.9836063  66.6190767  51.7689316   8.3860826  34.9323082
  50.9298985   8.1048726  34.5673752  51.7644970   9.3384980  34.8368192
  72.5697967  26.7912314   6.4319052  72.1448120  26.6712639   7.2811569
  73.1208691  26.0154841   6.3281359  52.0901820  33.0469153   6.5099777
  52.1776142  32.3936293   5.8158554  52.9908824  33.2855199   6.7291512
  13.8037705  70.1484108  62.3831081  13.4851658  70.8757925  61.8486595
  14.7364616  70.3284264  62.5010681  86.4371308  55.8675168  39.3810238
  86.0573324  56.6664574  39.7466530  87.3650440  55.9164975  39.6108212
  83.3828744  23.4638283  17.9583229  83.5737404  24.2183850  18.5155071
  83.0413970  22.8021786  18.5598625  34.9655662  81.3321708  15.9534802
  35.4337536  81.9975256  16.4578022  34.9810193  81.6586517  15.0538124
  33.9164925  46.6522932  56.8899012  33.4256744  46.7225504  57.7086735
  33.8579035  47.5244856  56.4999342  25.4583630  14.7834656  12.1152367
  25.8729300  14.2046616  11.4754261  25.3505215  14.2397235  12.8955807
  69.8478731  52.7630017   0.8584799  70.6229862  52.6014588   1.3963761
  69.1152045  52.4689171   1.3997235   9.0230481  80.1883482   6.5668501
   9.1576652  79.2676447   6.7913784   8.6610357  80.1683901   5.6809725
  18.4549126  35.1668713   1.9043793  19.3562970  34.8992322   2.0835556
  18.0060372  34.3546460   1.6697897  12.5897202  72.1098969  12.5695576
  13.1302914  71.4920304  12.0773567  13.0905757  72.2843907  13.3663811
  55.6542294  74.0566658  38.0909599  55.2847235  73.3414124  38.6087574
  56.0164968  74.6598528  38.7399258  72.6689145  29.9146435  16.7950215
  72.0161506  29.7696898  16.1101021  73.2298192  29.1398308  16.7591633
  54.3269507  11.6203164  52.6378775  53.3842484  11.4945458  52.5295925
  54.4994585  11.3689469  53.5452271  27.2775245  70.5455542  63.3246660
  26.4464641  70.0862694  63.2037067  27.0460272  71.3345575  63.8146830
  11.8125615  16.9423697  23.8583244  12.3142323  17.1932480  23.0826821
  11.0297022  17.4921630  23.8253941  77.5659744  10.6091451  57.1186829
  76.9687931   9.8879003  57.3172092  77.0267956  11.2433957  56.6461945
  46.4391327  47.7240753  60.8785629  46.5958166  46.8896532  61.3206291
  46.3204622  47.4890041  59.9582958  20.3022465  23.6733887  12.6380028
  21.1215052  23.9189265  13.0678429  20.1345858  24.3835709  12.0185150
  11.2607226  24.7879813   3.3997978  10.5761275  25.0599215   2.7885641
  10.8691249  24.9046776   4.2653956  63.4960982  26.0879443  48.0676140
  63.7516144  25.2163623  48.3697666  63.5395816  26.6354916  48.8515343
  35.1741600  78.9031410  58.8527107  36.0459018  78.8252640  59.2403030
  35.2736735  79.5675707  58.1708956  46.8481795  75.6422876  10.4764618
  46.8979351  75.0888895  11.2558808  47.2224526  75.1058911   9.7775807
  74.2520615   6.8308995  17.4812950  73.5297510   6.7589448  18.1052460
  73.8292285   6.8161223  16.6226734   7.4869737  67.2463868  12.1657910
   6.8810877  66.7717621  12.7348770   8.2776389  66.7069790  12.1548523
  65.5155174   5.9046506  61.1159229  64.8398249   6.0932302  61.7671633
  65.3508703   4.9984025  60.8554745   6.2986510  15.2970838  56.9957399
   6.3814013  14.7303914  57.7627134   7.0716899  15.0990819  56.4671183
  61.6113451  17.3688815  44.1663326  62.2267192  18.0726216  43.9606632
  61.7915746  17.1528933  45.0812592  72.3187109   7.3581908  19.1324772
  72.1728047   7.9938338  19.8331131  71.9228074   6.5492604  19.4567074
  53.8507571  40.8837960   9.2768730  53.0829930  41.3714478   8.9786114
  54.5930323  41.3394997   8.8798918  12.2235093  19.4777987  37.6424374
  12.0536360  20.3877137  37.8862156  12.4986729  19.0587542  38.4578671
  41.9567427  47.7461693  13.8627018  42.1427045  47.7362416  14.8016133
  41.0628018  48.0824158  13.7991394  37.1004240  67.3658227  29.9394001
  36.7891209  66.5105198  29.6431126  37.8344653  67.5676941  29.3591751
   6.9447851  66.9091320  63.5695982   7.5500494  66.4971018  62.9530573
   7.2395432  66.6109562  64.4300842  16.8340811  12.5273631   2.3827042
  16.1351475  12.2732852   2.9853405  16.5179715  13.3340142   1.9757427
  84.0020832  36.2736867  22.0913185  83.3239683  36.5044139  21.4563717
  83.7796744  36.7787192  22.8734364  85.3250774  50.4519818  20.5756821
  84.9674472  51.2964127  20.8500351  85.9895047  50.2480481  21.2338509
   2.0347724  13.7270901  14.3601383   1.6720185  12.8677485  14.5750107
   2.1957502  13.6901686  13.4172882  34.7407136  27.9583142  65.6840099
  34.3299660  27.1562503  65.3611912  34.0228924  28.5890029  65.7405438
  63.2904878   1.7002556   0.9638943  63.6691179   2.0103810   0.1412787
  63.8240811   2.1121667   1.6434826  52.1056175  66.3295984  67.5382137
  52.2133255  67.2447920  67.2792721  51.9005966  66.3675451  68.4724283
  28.7191472  31.0198043   9.1976608  29.0428290  31.5715096   9.9097504
  28.2435546  30.3152630   9.6377339  68.2505171  66.4200877  32.8886856
  67.5340168  66.4646600  32.2555412  68.4969036  65.4953216  32.9068531
   0.4403648  40.0999711  15.0881924  -0.0709548  39.9827931  15.8888497
   1.0836491  39.3914673  15.1089729  13.3790288  27.3639557  13.0163540
  13.8724789  26.7987082  13.6106934  13.5274348  28.2490704  13.3491863
  12.3892245  32.6822159  12.2170033  12.9301295  32.6380036  13.0054821
  12.5980696  31.8802426  11.7380013  30.9492064  45.7203388  65.4903746
  31.0427308  45.8113194  66.4386415  30.0561881  46.0130978  65.3085947
  29.4226813  59.7951317  62.4651384  28.7320709  59.8341417  63.1267786
  29.0382838  59.2923212  61.7470503  67.2435507  24.4458077   3.0012240
  66.7678901  25.1624558   3.4212174  66.7537275  24.2718384   2.1974577
  64.0817871  27.0888159  36.9667305  64.7173568  27.0209334  37.6792492
  63.2344678  26.9407437  37.3866810  35.2654259  73.5184620  23.2242550
  35.8737521  72.7805828  23.1829514  35.7182465  74.2279934  22.7684559
  81.4070853  40.2633355  18.1194748  81.7185625  39.5422909  17.5723805
  81.8850788  40.1631520  18.9427056   1.2838071  63.0783819   0.1530184
   1.2355750  63.6279439   0.9352507   1.8956225  63.5358475  -0.4237352
  83.8523993  16.5487311   4.5362200  83.8716539  17.4883149   4.7179903
  84.4658407  16.1703084   5.1660742  76.6201195  33.8323519  12.5128140
  77.1671423  34.3963931  11.9661392  76.5442249  33.0178139  12.0158352
   2.2285321  70.8737326  48.3996391   1.9003676  70.0286198  48.0925226
   3.0311847  70.6604004  48.8755226  79.6749669  50.6390429  39.6617103
  79.0827703  51.1838913  40.1800489  80.5469095  50.8460379  39.9980164
  10.3200445  36.0932610  29.7373642  11.2089762  35.8377097  29.9837937
   9.9498853  36.4717791  30.5348171  63.1414835  52.9590713  11.3275017
  62.9787080  52.4666511  12.1320309  62.8599803  53.8509189  11.5314545
  82.8226861  32.5806592   6.1508192  82.5644478  31.9303630   6.8040098
  82.7720508  32.1148894   5.3161158   6.4131746   5.1759265  14.9586739
   6.1146531   4.2917893  15.1717915   6.6105804   5.5730555  15.8069290
  63.8912823  14.9321339   4.5789541  64.7725549  15.3014109   4.6357407
  63.3183297  15.6296656   4.8974003  73.9527504  22.6106786  39.0127969
  73.4784500  23.4371518  38.9221883  74.2667381  22.4166535  38.1296206
  75.3081426  25.4803774   7.5011124  75.3438338  24.7286008   8.0925383
  75.8656558  26.1384318   7.9162945  62.3830049  76.2869738   6.8261875
  61.9721572  77.1178316   6.5872063  62.0773856  76.1161636   7.7170624
  79.2924873  76.6726731  29.2820992  79.0568916  77.3941945  29.8653092
  79.1633026  77.0246361  28.4013809  51.6695782   7.3056672  28.9984287
  50.9062162   7.6255534  29.4792427  52.1972563   6.8560860  29.6584763
  -0.1854148  58.6959336  18.4577145   0.1838789  58.5041878  19.3197407
   0.5617795  58.6492131  17.8612675  79.1543325  22.5010226  10.3171505
  79.1970285  23.3603213   9.8976101  79.7623667  22.5636599  11.0537686
  76.9650372  18.5722087  27.6868977  76.8605694  17.8179953  27.1068348
  77.7549025  18.3785269  28.1917061  23.0880150  14.2177365   5.7497420
  23.5542807  14.1290305   6.5809836  23.6815581  13.8400052   5.1006951
  66.9957032  29.4208596   8.2837977  67.8359267  29.6139119   8.6997189
  67.0889380  29.7519801   7.3905481  12.2704014  14.8473523   8.5456862
  11.3909373  14.7830603   8.1733383  12.2780928  15.6911585   8.9975323
  80.0258931  59.2420361  42.1455063  79.3060979  59.8082898  41.8671383
  79.7128209  58.8367341  42.9541744  75.2584156   4.2865250  67.7435364
  74.7293099   5.0835965  67.7126183  75.8651718   4.4298432  68.4698548
  50.4267618  30.2293227  19.8744740  50.6736025  29.3149970  20.0134339
  51.2159368  30.6393120  19.5204415  11.6118292  18.1876134  48.8536358
  12.2623019  17.5622987  49.1731644  10.7697300  17.8006505  49.0931416
  13.9795146  23.4186337  30.3531422  14.8653016  23.3248303  30.7035984
  13.9385399  22.7884362  29.6338429  77.7407977  38.3407519  28.8738407
  77.6310381  37.6405404  28.2305016  77.2700652  38.0310366  29.6476044
  23.2239462  15.4150697  10.6239475  23.9742805  15.4426023  11.2176384
  23.0689551  14.4820043  10.4769482  52.2192785  45.7328675  15.1998867
  51.8554744  45.3846810  14.3858589  51.4699491  46.1238740  15.6491722
  86.3840565  44.2847321  22.9756798  86.2683448  43.4006856  22.6273884
  87.3137721  44.3348572  23.1978096  37.3257852  52.0656872  69.2243767
  36.5613079  51.9236374  69.7826147  37.9311180  52.5674200  69.7703314
   4.7000489  74.4319222   5.1452984   5.2352891  75.0912640   4.7036900
   5.1231346  74.3100140   5.9952225  49.5919403  22.2880910  19.3389572
  49.3180009  21.4412615  19.6911873  50.5410578  22.2112486  19.2414822
   5.5752740  32.6663706  49.2228283   5.3016719  31.9522450  49.7984947
   5.4889474  33.4537289  49.7602715  43.6670033  12.1014260  56.4528561
  43.5713772  12.8737401  57.0101929  44.3099491  11.5566205  56.9067669
  74.5110456  66.8179701  36.0663952  74.6691601  67.3602532  35.2936329
  75.3854029  66.6054557  36.3928475  48.4414141  33.2936512   4.6008505
  47.8812818  32.5783955   4.2993702  49.1964929  33.2706396   4.0130104
  85.5119745  10.8204793  66.9121122  84.9567930  10.4455327  66.2284374
  85.0367300  10.6520413  67.7257490   0.2748165  17.6169989  11.3230290
   0.0786361  17.6479504  12.2594036  -0.3503433  18.2241891  10.9271397
  65.8053200  79.9886869  18.4806790  66.2582604  79.2253922  18.1222691
  66.2112300  80.1281713  19.3362583  78.4670218  27.0993350  45.1001228
  78.2364115  27.5036690  44.2637219  77.6415369  26.7447875  45.4304279
  17.4948964  39.4149850   8.5011019  17.1946129  39.7197411   9.3573631
  18.1859765  38.7834141   8.7005009  35.3487913  78.3641552  34.4832291
  35.7294570  78.9904188  35.0989594  35.8216516  77.5484274  34.6482338
   2.4280009  45.4686043  14.8340286   3.1911120  45.4506276  14.2564739
   2.2938904  46.3969395  15.0248779  51.8696451  67.1301699  64.6790361
  51.3666773  66.4169931  64.2857933  52.6121283  67.2540283  64.0877628
  48.5623107  25.8006117   7.8437771  48.2709393  26.4361880   7.1900381
  49.2222342  25.2760623   7.3903670  54.9908989  19.7545693  26.7469181
  54.2176750  20.3183196  26.7701782  55.7257680  20.3598998  26.6480602
  21.9956402  80.5745696  27.1963181  21.2604241  80.8989452  27.7163853
  22.7699338  80.9485410  27.6168503  10.0619421  12.5596116  27.7577461
   9.2980466  12.1331046  27.3694290  10.4424200  11.8939564  28.3307900
  59.4538848  37.1966670  22.7821507  60.1599770  37.8323529  22.6656593
  59.1640395  36.9949362  21.8924774  27.4116645  45.7252476  27.3911537
  27.8602538  46.5245030  27.6671757  26.6139826  46.0343907  26.9617714
  60.4113394  28.9831755  29.0231957  59.8526984  29.1905663  29.7722973
  60.2785831  28.0464957  28.8774647  68.7211081   9.2448065   5.0407995
  69.4324609   9.2070792   5.6801619  68.0015286   8.7682316   5.4547037
  68.4226958  81.1432813  14.3498482  69.2558043  81.3629030  13.9328064
  68.1945364  80.2853178  13.9919724  83.1790265  20.4434369   2.4726929
  83.3283504  20.3424571   1.5326227  83.4293970  21.3483021   2.6591458
  68.2325789  16.6387818   6.2319292  68.9774033  16.0467360   6.1272682
  68.5714122  17.4971984   5.9778847  19.5772872  28.0214474   9.9106945
  20.1608977  27.2648928   9.9677338  20.0783810  28.7401030  10.2962746
   6.5036664  30.8622286  31.2643303   6.5177140  31.7975543  31.0613407
   5.8824906  30.4905293  30.6380619  84.6532067  28.6488936  23.5293640
  84.7151979  28.4052870  24.4529690  83.9092335  29.2498515  23.4895767
  52.6333680   7.8347895  18.3881439  52.0726773   7.3712943  19.0102638
  53.4578105   7.9621098  18.8575234  29.6155604  17.5350258  34.8173870
  30.2054485  17.8097460  35.5193772  28.9225635  17.0483229  35.2636017
  35.5679021  32.9429934   4.2431130  36.3814101  33.0549071   4.7349610
  35.3905759  33.8079569   3.8734831  79.0675839   0.3991387  31.9160237
  78.2648739   0.3007195  32.4280800  79.1051587  -0.3899648  31.3755287
  44.9402175  40.8035634   5.5948271  45.5336556  41.3038514   5.0346722
  45.3013453  40.9031842   6.4756741  43.0126711  59.4134019   2.7501167
  42.7013453  60.2939770   2.9596390  43.6085328  59.5394204   2.0116724
   6.3607154  19.4393084   6.7479147   6.7005119  20.1693270   6.2303843
   6.3186202  18.7080262   6.1317362   9.5408616  43.3532593  14.6900620
   9.1745505  44.0770409  14.1819348   9.1105423  42.5730965  14.3402065
   9.0114456  40.3445864  58.5618782   9.4673443  39.8628545  59.2520380
   9.6584135  40.4294252  57.8615427  71.9613215  10.4105685   2.0466818
  71.6296956   9.7032330   2.5997938  71.8390390  11.2020085   2.5709929
  11.5654337  59.7717524  50.4419327  11.7344606  60.6319666  50.8262396
  11.0638809  59.3051147  51.1104584   4.2416081  43.3580372   0.4277147
   3.6626157  44.0277169   0.7917465   3.7630186  42.5375626   0.5460943
  39.4243097  81.9878292  63.4554195  38.7866783  81.3076115  63.6721277
  40.2561331  81.5205479  63.3782768  19.2740607  56.0440016  54.7985792
  19.5509326  55.7725525  53.9234257  19.8569441  56.7703676  55.0196552
  21.4188943  31.1058924  24.0026631  22.2258124  31.3827918  23.5685600
  21.4791903  30.1511023  24.0338387   2.2171054   6.1324761  15.4029335
   2.7425060   5.8457921  16.1499275   2.6867613   5.7999013  14.6380486
  38.8757548  39.7088120  15.8641972  39.5494637  39.0453503  15.7153000
  38.2216773  39.5425198  15.1854004  85.6718048  22.2201560  14.3872990
  85.5578670  22.0300839  15.3184952  84.9109491  22.7532694  14.1568245
   8.2243722  79.5337080  14.0239491   7.2996323  79.2898511  13.9837517
   8.4268134  79.5519875  14.9593224  56.3331549   3.6419057  33.7907481
  55.3990499   3.4489678  33.8710737  56.7678968   2.8199147  34.0178061
  63.9168420  12.4603007  15.5888809  63.3420929  11.7659876  15.2666630
  64.7396472  12.0152447  15.7917370  13.5981934  64.0465473  16.7169727
  13.9094870  64.0341924  15.8118881  14.1537230  63.4122108  17.1699967
   3.8600573  19.5039389  14.3884529   3.3673868  19.8636840  13.6508335
   3.5349640  19.9836037  15.1503433  52.7720015  12.5829743  58.8905191
  51.9403116  12.8723287  59.2657566  53.1152694  13.3567666  58.4436989
   9.0281400  36.5072081  16.2334980   9.2161355  37.1678040  15.5667843
   9.0079817  35.6800864  15.7521404  81.3656484  69.3022013  63.3032990
  81.3729065  70.2584982  63.3442879  80.5296772  69.0519476  63.6966896
  64.5692555  78.6653255  24.4658436  64.6979730  79.2823003  23.7454189
  64.0542786  79.1523455  25.1091446  60.1406424  70.8643793  19.9441113
  60.4382436  69.9764060  20.1420178  59.4320242  70.7441758  19.3119396
   1.5133898  75.9878849   1.4726414   2.0146506  76.5021943   2.1054567
   1.0641663  76.6406463   0.9356751  10.9702866  80.7262205  28.2029499
  10.3666632  80.5171083  27.4901070  11.3772671  79.8889373  28.4255566
  20.4770550  56.7950509   0.9070601  19.8695025  56.0759709   0.7337631
  20.9807477  56.8833134   0.0979056  68.1689255  81.3011144  41.5942063
  67.7505652  80.4403590  41.6116871  67.4414365  81.9197153  41.5284218
  35.1676035  75.6894684  31.5891004  36.0147548  75.4071569  31.9338727
  34.7949433  74.9011278  31.1942911  12.0515597  61.1672735  60.6782961
  12.0815742  61.6338396  59.8430443  12.2153246  60.2527809  60.4478312
  68.0804810  36.7563603  13.2190479  67.2219345  36.5396855  13.5826172
  67.8919682  37.3699687  12.5089897   3.0754695  24.7704623  21.8527283
   3.4214744  24.4690631  21.0126843   2.6834235  23.9899085  22.2442211
  12.2834668   3.6054013  14.3700565  11.4242491   3.2106946  14.2211022
  12.8394398   3.2345746  13.6847748   2.2482643  45.4577229   9.8741593
   1.6221437  45.5029557  10.5967678   2.1654567  46.3027547   9.4322361
  41.0715103  74.0636969  42.7575397  40.2849197  73.5540915  42.9519796
  40.7411385  74.8823214  42.3874807   8.7693796  13.0098841   1.4899983
   8.1807098  12.3703597   1.0891165   9.6102509  12.5565360   1.5503468
  72.2520420  27.4127219   3.6181702  72.6562556  27.2757599   4.4749607
  71.3600787  27.0801232   3.7182345  77.1706208  31.2226699  15.5673184
  77.5024744  30.3324053  15.6836571  76.3506874  31.2390587  16.0609497
  30.9578228  43.0198193  67.9828119  30.7307243  43.6278772  68.6863232
  30.1161885  42.7688742  67.6021433  82.7929243  45.4520199   9.8049225
  81.9345626  45.2594350  10.1822247  82.6067075  45.6963322   8.8983502
   3.3176193  63.8164590   5.1348271   3.2232461  64.6966241   5.4990210
   3.4379801  63.9574692   4.1957487  25.5529635   4.8497056  48.8161707
  25.2036326   4.0729760  48.3792543  25.9660380   4.5120572  49.6108961
  23.9430174  39.1348050  16.9759239  23.1690869  39.6478627  17.2083821
  24.2933640  39.5688698  16.1980595  68.8739392  21.7892335  21.6022267
  69.5742914  22.3708937  21.8978848  68.2426950  22.3706362  21.1782707
  51.0552010  51.3001416   0.3338541  51.7222867  51.0199330   0.9605183
  51.1258492  50.6743596  -0.3870045   6.9369929  11.1477040  66.6811466
   7.8477280  11.4156007  66.5585661   6.8390505  11.0586690  67.6291513
  10.4532370  55.9392235  16.1491932  11.0898766  56.1436341  16.8341412
  10.9041366  55.3137181  15.5820526  16.4064488  71.7602894  32.0168270
  16.2810692  72.4946950  31.4158692  17.2046075  71.3316128  31.7079415
   2.0835123  49.6645711  20.4565109   1.6545877  50.2992699  21.0304608
   1.5632162  49.6781895  19.6531834  78.1740944   1.0894536  41.8728304
  78.0286495   0.1480912  41.9673014  77.6334898   1.3413858  41.1241579
  39.9547935  53.2762814  64.7315168  39.3926096  52.5364351  64.9613190
  39.3461704  53.9931488  64.5528746  48.1133413  68.8376331  65.3499365
  47.2286510  68.8276720  64.9846172  48.2953453  69.7633743  65.5115128
  57.7358627  39.9614930  66.1145687  57.6909685  40.4754353  66.9208431
  58.0686998  39.1081977  66.3926697  70.2177700  57.5460789  20.3374638
  69.3312069  57.2893212  20.5910649  70.0955864  58.0977223  19.5648064
  57.4442087  20.8342669  26.2864556  58.3482962  21.1471102  26.3178600
  57.2353617  20.7987092  25.3529896  39.5087943  21.0845540  28.9535202
  39.9930462  21.3938401  28.1879677  39.4635138  21.8458817  29.5319237
  80.0562295  32.7888892  22.1522011  79.7003707  31.9955037  22.5523724
  80.8563432  32.9680894  22.6461090  79.3491158  39.5854924  35.0079312
  78.8964638  38.8754628  34.5527424  79.3564185  39.3150876  35.9261192
   4.4733298  68.3658504  45.7888317   5.2102262  68.6214924  46.3436842
   4.6814045  67.4740601  45.5101824  42.6873684  73.6952209  67.3598480
  42.0424271  74.0221262  66.7326164  43.0956030  72.9508829  66.9176579
  57.0209786  19.7499678   6.5909638  56.3896626  20.2488587   7.1094097
  56.8522114  18.8365767   6.8221869  23.3567595  34.0255356  64.9891520
  23.6985707  33.2041144  64.6360731  22.6674199  33.7567520  65.5964375
  45.3384849  24.2327807   6.9631066  45.2137920  23.7378810   7.7728953
  44.8940143  25.0657675   7.1206297  26.8060097  36.2504456  20.5841793
  26.9583020  36.9236014  21.2474312  26.1908803  36.6530249  19.9711670
  13.4151635  21.1915515  34.7885765  13.3065352  21.7934487  34.0522637
  12.9882893  20.3839038  34.5027126  11.2802205  49.8737786  24.7697415
  11.8506608  50.6387017  24.6941818  11.7573151  49.2750237  25.3442921
  45.0543491   4.1676377  37.9700971  45.8348004   3.6571931  37.7542758
  44.9808888   4.8048638  37.2596192   2.9935703  21.3476250  46.7303051
   2.5945410  22.2165654  46.6861691   3.6585722  21.4239237  47.4145474
  75.3967663  11.5891717  28.8841595  76.0732814  10.9210942  28.9947476
  75.4138967  12.0851681  29.7026600  61.9205427  69.0866947  49.0486813
  62.4566746  69.6728373  49.5827532  61.9893599  69.4405651  48.1619596
  37.2015882  54.7143412  67.5562525  37.0697832  53.8383198  67.9188156
  38.0740309  54.6823359  67.1637630  35.1099913   8.0141591  63.0669594
  34.6486758   7.2744607  63.4622622  35.9639261   8.0226087  63.4993458
  13.2720265  44.9384282  19.7093262  13.4355721  45.7167122  20.2420201
  12.3190388  44.8490117  19.7021832  38.2496915  18.5641883  10.7813324
  38.1353411  19.4606421  11.0968079  37.4410662  18.3724425  10.3063740
  23.2701621  56.0920212  10.7348408  22.6989779  56.7207120  10.2935661
  22.6781067  55.4061959  11.0436405   4.9356136  74.9919844  50.1947832
   5.7570267  74.5110273  50.0938225   4.4518787  74.5027971  50.8603096
  74.5837259  36.2129474  61.9877815  74.0878630  37.0039654  62.1990824
  74.7188091  36.2606072  61.0413647  22.6511273  25.6677458  25.1897015
  23.3293900  25.9751437  25.7911076  22.0022854  25.2482054  25.7546963
  21.8236622  52.2698949   3.3316483  20.9613309  51.9797394   3.6290039
  21.6422257  53.0229542   2.7693142  56.1598651   7.6610707  54.4091558
  56.0151522   8.5564660  54.7150278  56.2572710   7.1469735  55.2106810
  33.2574067  27.5867961   6.5926041  32.9280791  27.1923754   5.7850088
  34.1849217  27.3511717   6.6133274  38.2044945  52.7050637   4.0749230
  37.3934321  53.0456434   3.6975445  38.5393618  52.0980440   3.4149040
   4.9072559  77.0910532  68.4317493   4.5347460  76.2943734  68.8095999
   5.1686843  77.6155377  69.1885900  64.7155904  18.3638608  17.0328212
  64.6980762  18.0353642  16.1339247  65.1692104  17.6819336  17.5282371
  59.8900747  13.5749853  44.3286324  59.8208832  12.9001296  43.6533451
  59.0086364  13.9430273  44.3906403  38.2740493  74.7308333  37.2904730
  39.1666920  75.0749118  37.3225904  38.3850868  73.7818433  37.2328472
  30.6606793   6.0307354  57.6987886  29.7780633   6.0690451  58.0672407
  30.9707975   5.1503754  57.9109764  27.4504813   0.9553168  17.3252644
  26.5757498   1.2173197  17.0381607  27.2982463   0.4402993  18.1176151
  54.1654889  60.9372400  10.6599583  54.5095293  60.8157943   9.7750153
  53.3632247  60.4154621  10.6787361  61.9761466  23.9168000  39.7621560
  62.4697160  24.1505718  38.9760447  61.4065527  23.1999564  39.4829988
  60.2563230  29.5715617   1.1639942  60.2077429  29.9267434   0.2764620
  59.7047417  30.1544427   1.6857638  38.1743900  61.6181420  16.2189068
  37.8519921  62.3923229  16.6803612  37.3979120  61.0721468  16.0956062
  39.6419589  65.3799747  23.8646282  39.1783385  65.4083847  23.0276837
  39.9142246  64.4669484  23.9567436  69.5352482  39.3278480  30.8993340
  68.7168753  38.9422774  31.2121177  70.1769792  39.1083121  31.5747714
  63.1855431   2.3782227   9.0135397  63.2338646   3.3290789   9.1124167
  63.9546808   2.1524260   8.4904017  34.5725976  49.3117462  16.2374462
  35.1534752  49.1330139  16.9769539  34.0140097  48.5366468  16.1788620
  50.6863062  79.0761827  12.0933975  51.1970655  78.3019637  12.3299183
  49.9210183  78.7277268  11.6360821  47.5382168  50.4870320  50.9466028
  46.8050284  50.9984280  51.2888622  48.0784209  50.2994824  51.7142200
  81.8588998  21.6691828  64.2823076  82.3284789  21.0926294  63.6795521
  82.1873432  21.4286447  65.1486206  42.1513874  71.0443486  58.7804031
  41.4573092  70.5580760  58.3353996  42.2233767  71.8626762  58.2890892
  61.2528173  62.9500054  19.4325127  62.1086113  62.6192163  19.1596951
  61.4475529  63.7644123  19.8962464  39.3234913  45.0762080   6.8441405
  39.4320158  45.1179628   7.7942528  39.7862439  44.2793770   6.5850033
  59.8027198  51.9705187  11.3160957  59.1325991  52.0200490  10.6343998
  60.2776925  51.1613415  11.1267056  38.3300696  24.0153490  23.1578888
  38.4755157  23.7828933  24.0749706  37.5921039  23.4694360  22.8865589
  54.1961981  80.3151164  36.2399840  54.5774261  81.1581166  36.4854383
  53.5597671  80.1298995  36.9305515  19.7927999  29.5414901  56.3281107
  18.9485800  29.1422653  56.1180067  19.5673060  30.3711796  56.7488241
  23.6887026   6.9106621  60.2666807  23.3863282   6.6011202  59.4128752
  24.6396494   6.9718856  60.1762247   5.3402871   2.2732055  45.8910227
   5.7212543   1.4962451  46.3002014   4.5541283   2.4541374  46.4062405
   4.0805519  15.4162610  52.0721722   3.6764961  16.1067748  51.5466642
   3.9662328  15.7061422  52.9772329  67.8861777  77.5923894  37.6736797
  67.0820610  77.0790099  37.5957646  68.4233372  77.3099373  36.9334664
  77.8565698  18.7286592  50.3971863  78.4184115  19.4953799  50.2844715
  78.0375683  18.4279287  51.2877131  46.5908055  55.2485202   6.2306608
  46.4157121  54.9320375   5.3444256  47.4515669  55.6630002   6.1712755
  15.1017474  12.8172004  36.7917681  15.9389781  12.3715770  36.6625428
  14.9820184  12.8313625  37.7413464  46.5652947  66.7342471  15.5213799
  46.3593118  67.6395224  15.7543625  47.5204734  66.6877197  15.5626263
  64.2979614  40.3957838  11.7562069  63.7804930  41.1216706  12.1048416
  65.1834361  40.5539758  12.0835270  26.5877074  60.0043820   2.5391592
  26.0219417  59.5639359   1.9050087  27.4360086  59.5711289   2.4447741
  19.3379958  79.4359838  50.3632832  20.0252564  79.3796762  51.0271645
  19.6619017  80.0839191  49.7375870  60.5593824  35.6137133  42.6553822
  60.7412505  36.5127969  42.3818779  60.5913758  35.1056576  41.8447733
  56.0198895  49.9007271  12.6215996  56.6004698  50.6541501  12.7288975
  56.5195386  49.1619222  12.9690899  57.2269098  46.9164758  22.2034420
  57.6927082  47.2250323  21.4262356  56.3098709  46.8747901  21.9322743
  34.9226189  21.4018130  24.2090559  34.3618035  21.9785023  23.6902618
  34.3164921  20.9245920  24.7757125  49.7398281  10.5879211  48.5553885
  50.2113771  10.1975036  49.2912197  48.9297485  10.9222841  48.9403629
  52.9747638   1.9936249  12.8758682  52.3064509   1.6134999  13.4460415
  53.1198740   1.3300393  12.2014584  73.3972685  75.5082272  10.1853241
  73.8045494  75.3987955   9.3260349  73.2978479  74.6164344  10.5185761
  38.5878448  80.0724243  14.5508446  38.2940166  79.1687869  14.6663345
  39.3989305  79.9981354  14.0480007  35.9274602  43.6623716  64.7733498
  36.8033290  44.0158987  64.9286079  35.5615187  43.5360432  65.6487703
  28.3222327  57.6908659   6.6602482  27.6088105  58.2057141   6.2831654
  28.1837866  57.7462350   7.6057638  59.7630016   5.1922152  46.5712036
  59.0137376   5.7201693  46.2953438  59.4087325   4.3089602  46.6740956
  18.0026484  26.7367673  59.5284700  17.8591490  27.6145554  59.1747332
  18.7211943  26.8441939  60.1516724  38.0401401  35.0256674   3.3076491
  37.3237054  35.5329178   3.6892904  37.6901041  34.7045462   2.4766316
  73.6514219  11.8527243  15.1491417  72.7987274  12.2514556  14.9754872
  74.1237232  12.5102112  15.6599011   8.1990607  75.1911009  54.9331045
   8.7212880  74.4883693  55.3199863   8.8449104  75.8185483  54.6084213
  41.9144003  39.3133643  26.2561096  42.2186892  39.9935731  25.6553139
  40.9595923  39.3664880  26.2142624   0.2423437  31.5045333  34.9641848
  -0.3432868  31.8637252  34.2976642   0.3256478  30.5786681  34.7360015
  32.9928207  14.4910729  56.1212826  32.5953317  15.3055322  55.8132410
  32.4853039  14.2556465  56.8979645  42.9854218  38.0843790  20.5255760
  43.1488244  37.1811609  20.7971062  42.2987954  38.0145957  19.8623242
   5.6507914  60.5180429  13.0422844   6.0577957  60.0479661  13.7700237
   6.3796799  60.9551333  12.6019348  24.9750702  45.8637072   9.2467655
  24.3141012  46.3800781   8.7855591  25.7199175  45.8367191   8.6461796
   1.9327362  28.8617682  46.7458344   1.9055051  29.5045781  46.0371161
   2.4361756  29.2898941  47.4382877  47.4308137  75.7607363   2.5605740
  47.1817700  76.1119746   1.7056812  47.3063008  76.4920424   3.1654848
  16.9221032  37.8824067  55.2402592  16.2007308  38.5113883  55.2556181
  17.4793434  38.1746197  54.5189238  47.8476541  58.3046042  23.5014214
  47.4408059  57.8437291  24.2351116  47.4929754  57.8755389  22.7227463
  43.5275785  57.7819775  10.4699577  42.7676014  57.2214995  10.3133358
  43.1618731  58.6620997  10.5587067  61.6343586  65.1605199  51.3524975
  61.3794343  64.2462157  51.2288250  61.7115752  65.5098270  50.4646553
   1.1198275  65.8981775  20.2783455   0.8356517  66.1948727  19.4137921
   0.3808587  65.3892754  20.6117787  65.7811686  27.3589919  14.1837277
  65.3405532  26.5228102  14.3350281  65.1182523  27.9063103  13.7627663
  33.7866831  49.1811800  55.8079815  33.3579183  49.7532749  55.1715040
  34.7094488  49.4332075  55.7730913  72.4447632  32.1573210  68.0740070
  72.7523565  31.7165780  68.8660669  73.1727886  32.0778966  67.4576378
  66.2696007  13.7928364  17.7019085  66.8270185  13.5113547  16.9764485
  66.4162692  13.1381629  18.3846440  60.5810426  81.4420307  41.3878489
  60.9626527  81.8049322  42.1871662  61.3253916  81.3298739  40.7965803
  24.9484658  34.6473265  55.0889015  25.4347563  35.2369714  54.5126438
  25.5540681  34.4599867  55.8061075  77.0382444  74.9500249   6.7361607
  77.1213810  73.9992117   6.8087830  77.8196899  75.2227496   6.2553324
   5.9552521  40.7358980  57.8800917   5.2282852  40.3247356  58.3477449
   6.4142787  41.2432671  58.5494995  66.9012897  51.3158547  19.2942776
  66.7645614  50.7539199  20.0570168  66.0291569  51.4193522  18.9136185
  35.4305456  43.7697263  12.8914608  36.0013924  44.1911464  13.5339321
  34.6077971  44.2557834  12.9468216  80.6075471  55.4094744  46.5523148
  79.7209191  55.5505800  46.8842983  81.0290711  56.2659121  46.6234827
  50.8425918   3.4666035  33.6622681  50.5985096   2.5573180  33.8350548
  51.0462311   3.4863827  32.7271904  42.6361200   8.4483645   5.9973015
  42.5936886   8.8320801   5.1214041  42.9166326   7.5451586   5.8497729
  72.0333426  53.8912378  38.4179653  72.9602806  54.1094600  38.5148873
  71.9174473  53.7502717  37.4783291  55.9303252  74.4067572   8.1101669
  56.3326399  73.5670565   7.8881802  55.1568572  74.4576667   7.5485768
  19.0293050  26.0755086  49.2250204  19.2085898  25.3540182  49.8279619
  19.8043895  26.6341972  49.2828465  82.9457554  47.1263838  65.4792452
  82.9530274  47.9034472  64.9203634  82.9689860  47.4727154  66.3712931
  26.8734193  19.6193194  45.2216005  26.0463190  19.6245861  44.7398186
  27.5435376  19.5163119  44.5459032  21.2419377  66.7648910  22.3788037
  20.3085433  66.6727565  22.5699009  21.2711994  67.2648119  21.5630497
  51.0000960  59.4715582  58.1271423  51.2957041  58.5725652  58.2708801
  51.7617862  60.0109838  58.3394779  86.3000318  45.6862831  28.2412124
  85.8866085  46.1777973  27.5314760  85.8608780  44.8358250  28.2310748
  68.1202447  68.5550833  67.6318598  68.2874274  69.0523100  66.8312025
  68.5494708  67.7123117  67.4844408  22.3351312   9.0618223  62.9101992
  22.8494096   8.2552248  62.9441261  21.8930316   9.0998518  63.7583303
  34.5373170  43.4849404   3.7181534  34.6334998  44.4074480   3.9547123
  34.4442163  43.0313094   4.5558800  51.5677993  73.0753325   7.3014368
  51.3087599  73.0857466   6.3800158  51.3431828  72.1952365   7.6034512
  30.5828461  22.7909480   9.0871109  30.9619202  22.5105713   9.9201264
  29.6939960  22.4358665   9.0968622  22.9929161  10.4589832  25.0691175
  22.5344276   9.6258175  25.1779962  23.7330627  10.2522731  24.4984293
  29.7851043  79.0132140  18.0192436  29.6701866  78.5908125  17.1680130
  29.6189722  79.9407075  17.8507580  21.1242938  34.2490602  66.9210720
  20.9803319  34.9410439  67.5665665  20.9441781  33.4375548  67.3956776
   5.0841564  43.1013489  68.8629246   5.8882999  42.5863075  68.9286137
   4.6626541  42.7864027  68.0633163  84.2455666  65.5195545   6.5696682
  85.0402204  65.9637164   6.2739100  83.5375301  66.1265014   6.3539471
  70.5011980  75.4056977  15.1331200  71.2043278  76.0486411  15.0411286
  70.8714764  74.5944165  14.7853436  53.9060823  71.3687204  25.0459541
  54.5478718  70.7015441  24.8026241  54.2127363  71.6993998  25.8902611
  77.8365652  79.7433613   7.0169510  77.1575634  80.3612422   7.2878899
  77.3538105  78.9718317   6.7204346  28.4678683  33.0280869   2.5495304
  28.9228254  32.5809287   3.2631792  27.7924895  33.5483121   2.9848017
  19.7181283  33.6936109  19.8409046  19.0530912  34.2712329  20.2154888
  19.2976276  32.8343789  19.8072685  70.6117193  53.4723090  14.5324673
  69.6816866  53.3320128  14.7101940  70.6321947  54.2297112  13.9475311
  54.5048237  39.4320774  58.0492878  55.4380608  39.2418146  57.9538679
  54.2465591  39.7951317  57.2021008  70.2787821  45.1307874  18.2916035
  69.4818775  45.6500052  18.3992638  70.8159630  45.6396262  17.6843609
  61.4195515  80.6387375  64.1365004  61.4959411  79.7152705  63.8964939
  60.6651435  80.6717119  64.7247314  20.9943799  76.9155906   9.1138996
  20.3625111  77.3303817   8.5265984  21.2879066  77.6229809   9.6880688
  55.8321315  65.7889343  49.3173790  56.3925111  66.4175571  49.7723961
  56.2613482  65.6530405  48.4726667  46.8251705  47.5711823  65.2047014
  46.3548708  47.1701670  65.9356165  47.5319147  48.0671740  65.6179094
  83.4951162  19.9325430  66.1680841  83.6341744  19.3847048  66.9405890
  83.9110576  19.4496000  65.4539442  70.6034609   8.0880425  29.4248356
  71.1802157   7.3242924  29.4083466  70.0287947   7.9380486  30.1754917
  63.9895956  66.8580602  22.3212589  64.4160525  67.4551676  22.9359306
  63.3573000  66.3765453  22.8547157  44.1202497  30.5156708  66.7588282
  43.7864876  29.8407483  67.3498583  44.0069246  30.1449823  65.8836269
  13.7640512  54.0669298  63.5510397  13.0968702  53.4857082  63.1859636
  14.1418695  54.5062447  62.7891397  74.9227690  47.6410532  52.2891760
  74.5346724  47.7948904  53.1505394  75.8588170  47.5411940  52.4625969
  46.2486402  32.3477529  12.8569473  46.3990955  31.5281962  13.3280338
  46.2177805  32.0919322  11.9350876  44.9322578   9.5881865  29.7979702
  44.2746004  10.2128003  30.1038708  45.3125462   9.2289660  30.5995812
  51.8852472  13.3492196  70.0066757  51.5888309  12.5509715  69.5694447
  52.7683401  13.1413269  70.3118944   6.9200367  10.4050338  60.3078461
   6.2547344   9.8611444  60.7294941   6.7431909  10.3168011  59.3712711
  55.0272815  75.4375528  15.2686562  54.1589682  75.1741932  14.9638523
  54.8604457  75.9232210  16.0764469  45.4235177  60.6866895   1.0030522
  45.1283769  60.7299863   0.0935234  45.9219412  59.8711203   1.0545601
  36.6179037  56.8959904  63.0433702  36.0100889  57.2906351  63.6687088
  36.1013484  56.2238073  62.5988817  44.3136844  26.5888188  13.5122646
  43.7977442  26.4054129  12.7271523  43.6768111  26.9201014  14.1454090
  22.0575426  71.5829657  20.2745690  22.8831504  71.9477748  19.9559559
  22.3000441  71.0906886  21.0588516  61.7553536  60.6253658   5.2785553
  61.2513320  59.8420881   5.4991640  61.1411015  61.1768411   4.7939886
  33.5637760  26.5009046  59.4150496  33.9083910  26.6448069  58.5337067
  33.7688923  27.3079252  59.8871469  47.9716158  53.1235647  47.1658278
  47.7524281  53.5836124  47.9760981  48.8987637  53.3152819  47.0248365
  30.4595400  67.2626899  14.4395603  29.5604858  66.9342445  14.4320168
  30.9382814  66.6377400  14.9840607   3.9299670  22.7902937  43.7403965
   4.6139631  23.4278321  43.5356426   4.3313497  21.9409966  43.5564947
  75.3696057   1.1949752   8.1460823  75.3433200   1.2916157   7.1941342
  76.2767991   1.3893101   8.3815922  86.1164510  46.3338852  59.4028902
  85.7507151  46.6047382  58.5608053  85.5023236  45.6768227  59.7305298
  44.8577103  16.0811732   6.8605818  44.7785636  15.2938435   7.3991694
  44.0243098  16.1362765   6.3929905  40.7470212  13.0038140  38.0065216
  40.0665841  13.0232308  37.3335709  41.2696299  12.2298739  37.7964558
  47.3079888  79.3723248   2.0493759  47.2434430  78.6981915   2.7258457
  47.4773638  78.8863300   1.2423100  12.6603162  32.9401278  55.5275869
  13.2695746  33.3298850  56.1545849  12.5697827  33.5997391  54.8398781
   8.0532775  22.2568343  20.1229061   8.8427839  22.4201319  19.6069206
   7.4026618  21.9714854  19.4814266  33.3616300  72.3292492  21.2440647
  33.9653639  72.3440622  21.9867100  33.5367013  71.4944480  20.8096852
  26.6874318  78.6711167   8.8489546  26.4497296  78.0141185   8.1946768
  25.8680706  79.1285680   9.0376820   3.4633425   8.6639959  40.7060671
   3.0520943   9.4396096  41.0875511   4.1834807   9.0096474  40.1786613
  14.3289959  22.3546982  67.7206802  13.7730348  21.9745731  67.0405006
  13.8047242  23.0659461  68.0887794  47.8214542  75.4634999  19.1434826
  47.9442493  76.3980435  19.3101563  48.4065549  75.0304411  19.7650494
   6.5277272  80.5648804  68.2003975   6.1189443  80.2249336  67.4044323
   7.3295498  80.0509357  68.2961369  21.2282920   8.7627208  68.9893818
  21.5680933   8.0683440  68.4249306  20.2940488   8.8020486  68.7847519
  54.8007934  63.6855029  33.8652386  54.1286509  63.6342691  33.1856503
  55.5276863  63.1652616  33.5228790  21.3645720  28.6557579  63.1571674
  21.3142323  29.5532680  63.4860706  22.1498394  28.6449027  62.6099300
  76.9877040  48.6905289  68.4416485  76.7610078  49.0870953  67.6004744
  76.9472849  47.7478266  68.2806635  19.8612893  34.3345761  64.3073225
  20.2619720  34.3834829  65.1752472  19.8429644  35.2411008  64.0005493
  14.8515677  21.0299802  59.0185118  14.8415828  20.0747418  58.9580774
  14.7026527  21.3283038  58.1212616  85.7136616  14.5485423  14.3013920
  86.3735041  14.5872090  14.9937405  86.2184438  14.4419787  13.4951271
  70.9469053   9.2468045   6.7325415  70.6900009   9.2813704   7.6539721
  70.7946845   8.3374379   6.4754070  16.9448781  43.6348152  64.3092775
  17.1219218  44.1994476  63.5568953  16.6147614  44.2296076  64.9826813
  45.1555781  76.5680193   5.3642811  44.6573369  76.3875149   6.1614050
  44.5649998  77.0961331   4.8271193  64.0279984  23.5817361  49.3497181
  64.8322486  23.4885502  49.8603392  63.4513330  22.8945589  49.6836042
  48.3134600   3.0951474  24.8289551  49.1009768   3.6357138  24.7670235
  47.6880559   3.6372397  25.3098263  58.3523051  66.9313406  20.8813061
  58.0932443  66.1555766  20.3840031  59.2352049  67.1313785  20.5703320
  54.1768090  45.2726002  -0.1931368  54.9413244  45.7798608  -0.4659592
  54.2698352  45.1909308   0.7560267  78.2208877  13.0848062  70.7876730
  77.5805294  12.7297807  71.4042234  78.0562925  12.6113200  69.9722290
  37.2406034  68.3365058  46.3843788  37.3021821  69.1263007  45.8470978
  37.2148727  67.6182006  45.7522263   7.5338921  18.8045428  17.5541748
   6.6408214  18.5762665  17.8121342   7.9251227  19.1732524  18.3461441
   6.0374157  65.3438543  20.4883923   5.7777636  65.9999226  21.1352123
   5.2634851  65.2324723  19.9362530  48.5468287  71.3992632  65.7150984
  47.7256043  71.8412466  65.9306765  49.1775400  71.7441643  66.3471460
  34.6627164  28.2840323  47.8005791  34.3554187  27.9484773  48.6427212
  35.3294611  27.6564646  47.5215816  71.9176206   5.4724572  28.8806500
  72.6721522   4.9222062  29.0907444  71.9402834   5.5562184  27.9273953
  25.6050158  62.4972391  70.2305365  25.7273817  63.2729149  70.7778788
  26.0586643  62.7062845  69.4139957  74.2982804   7.5692528  56.7403364
  73.4840500   7.8776401  57.1380281  74.9834346   7.8564858  57.3439026
  70.4503862  76.9762467   9.5760502  71.1725943  77.5630568   9.3517651
  69.9078838  77.4838971  10.1795448  34.7822521  44.5610611  10.0479092
  35.2679764  45.1075865  10.6656613  35.0621556  44.8676850   9.1854347
  35.4347396  35.1958656  50.6777668  34.8359156  35.8678675  50.3521013
  35.2043366  34.4095731  50.1829004  19.5267975  32.2487164  54.5558071
  20.3657842  31.8100238  54.6968126  19.7012568  32.8808355  53.8585138
  19.6261513  50.9862661  51.6820288  19.4297647  50.5765390  52.5245142
  20.0742364  50.3037405  51.1824179  58.7729089  71.7577432   6.0242380
  58.3930032  71.6277288   6.8931450  59.7116367  71.6192483   6.1500992
  55.0347376   5.1288265  47.9473305  54.9134970   4.5597860  48.7074137
  55.9047413   5.5089718  48.0690813  47.6199874  16.5663979  10.2786125
  46.8891963  16.9278834  10.7801212  47.4447044  15.6260226  10.2438797
  37.9336500  39.9584341  59.9094534  37.2518849  39.3824124  59.5635843
  37.8039551  40.7869959  59.4480467  54.0118715  22.0080540   5.2396692
  54.1953888  22.9439805   5.3208841  54.8202830  21.6350911   4.8880972
  74.4180166  74.8431921  64.7742081  75.1028656  74.3106937  65.1787519
  73.6053669  74.3762207  64.9685478  40.7649612  44.1447306  68.5055828
  40.9798861  44.1432667  69.4383383  39.9124289  43.7123871  68.4555578
  29.2332743  50.6800585   4.5854963  29.7728437  50.4112040   5.3290095
  29.2697825  51.6364978   4.5965017  10.8809499  70.1116584   8.9149632
  10.0377135  70.4980968   9.1512884  11.1154942  70.5351733   8.0892147
  81.7932769  41.5681410  53.4136057  81.6955083  40.7942438  52.8588438
  82.6791635  41.4975548  53.7692070  74.1998188  69.0649437  15.7149376
  73.4135286  69.2108415  15.1889195  73.8901226  68.5780738  16.4786686
  83.1425850  38.6621937  16.8934883  83.3894150  37.7388136  16.9452347
  83.3708231  38.9214578  16.0007824  86.4423784   9.9938319   7.7330412
  86.5219649  10.5711768   8.4923615  86.0912475  10.5547402   7.0414318
  82.8257219  58.8681291  22.8480686  83.5445253  59.0170632  22.2337593
  82.4864618  59.7431432  23.0364479  78.0428323   3.7291358  18.8227047
  77.8768524   2.9047225  18.3655228  77.1806570   4.0115998  19.1278328
  56.7432253  57.9382359  20.9241928  57.6269690  58.2452820  21.1265530
  56.7659251  57.0005117  21.1149468  48.1871573  71.0332726  15.8834995
  47.4075334  71.2489484  16.3952603  48.3700304  70.1188634  16.0994782
  19.8411846  53.7470961  51.4292431  20.4674292  54.1600370  52.0238256
  19.7609735  52.8493881  51.7516088  38.5997937  21.8397521   5.5419983
  38.2590703  21.6870414   6.4233746  37.8192656  21.9568847   5.0004400
   7.8485072  41.2989712  62.3114157   7.6651931  41.7483950  63.1364298
   6.9849139  41.0876656  61.9567537  28.0482912  18.4658062  71.1277914
  28.7123752  18.7620890  70.5053473  27.3583460  18.0898893  70.5810785
  29.2171884  27.5672388  68.3171415  29.0185618  28.2952309  68.9060450
  29.8406792  27.0284510  68.8041687   2.7098456  65.1407959  70.4366498
   3.3509317  64.4613650  70.2278133   2.7460637  65.7412555  69.6920916
  66.0431020  12.0665120  31.2320018  65.1111142  11.8524312  31.1895490
  66.1477367  12.8016805  30.6280160  10.5581665  17.7148962  69.9696398
   9.8962802  18.3762193  70.1716042  10.0979376  17.0725954  69.4293880
  12.8444242  13.2308459  67.7583218  13.0214858  12.8755367  68.6293173
  12.1632421  12.6610672  67.4011469   0.4059752  80.6513588  59.1653728
   1.2330540  80.7090099  59.6437550  -0.0503485  81.4657587  59.3769264
  48.8037114  49.0405570   6.6055502  49.3926684  48.6436539   5.9638132
  48.3270316  49.7082345   6.1123814  38.6625671  43.6438942  56.5069723
  39.1995931  42.8521395  56.5378475  39.0790749  44.2402220  57.1291828
  22.3511729   1.3532851  25.6523194  22.3031649   2.1981595  26.0996594
  23.2612023   1.0766909  25.7598843  19.0454090  37.6582456  66.8157244
  18.3569086  38.1470490  67.2665787  18.5740328  37.0606065  66.2353277
  63.4124302  38.1371307  61.6901207  64.1878890  38.6925268  61.6099310
  63.1536865  38.2181525  62.6081181  16.9758487   7.8193080  64.0928841
  16.8370914   6.8783027  63.9857054  17.8493500   7.9750437  63.7337542
  26.3244806  74.0170311  15.3245987  25.4071019  73.7490963  15.2711357
  26.4310239  74.3285345  16.2233986   8.5705346  38.3950901  62.1518087
   8.3216751  39.2754698  61.8703222   8.8505727  38.5044026  63.0605745
  74.0372824  21.8020082  66.9064713  73.9606881  22.6655912  67.3121643
  73.2320880  21.7038560  66.3982773   0.7902662  58.3181308  44.5456471
   0.1195852  57.6609300  44.3598904   1.3968341  58.2565378  43.8077320
   7.1367985  35.5900574  63.9059258   7.4389368  34.7480273  64.2464066
   6.9247586  36.1018801  64.6865082  66.7229780   9.2766974  20.1484169
  66.7760244   8.8897631  21.0223164  67.2762426   8.7162421  19.6043362
  33.6971934  54.9955345  68.5455132  34.1707451  55.7930733  68.7819767
  32.7748520  55.2184130  68.6713791  56.1218898  55.9534453   7.9221310
  57.0504086  55.7370590   7.8369106  55.9313170  56.4964448   7.1572365
   7.0513701  61.1169863  50.1410818   7.4052757  60.3215218  49.7433186
   7.7757299  61.7420340  50.1119471  37.8329973  76.1303710   3.5969938
  38.5792957  76.6107081   3.9555277  38.1099056  75.8809398   2.7153267
  64.5061748  62.0496129  13.0273213  64.5706384  61.5090369  13.8146366
  64.1608159  62.8862260  13.3388294  32.7104616  30.5640697  70.7028055
  32.8217268  31.3661313  71.2132454  33.6025119  30.2901840  70.4895735
  73.5517951   1.6254971  13.9975895  72.6037189   1.4938567  14.0050377
  73.8824841   0.9517977  13.4034504  68.2594546  14.6354983  15.8052410
  67.4709335  14.3697999  15.3320851  68.1531021  15.5774520  15.9380593
  86.9503721   5.2593825   4.8438467  86.7534193   4.8597453   3.9966597
  86.2169417   5.8529780   5.0049557  11.9447291  59.2092848  41.6501427
  11.1539662  59.6747589  41.3776398  11.6203964  58.4359312  42.1116257
  80.3030639  49.1203594  54.8679686  80.2321219  48.1657934  54.8666286
  81.0643321  49.3031836  55.4186773  16.3132203  16.1143625  66.8659210
  15.6406116  15.7513785  66.2896633  17.0778322  16.2259912  66.3009977
  53.8678071   6.9083665  -0.0828825  54.8098132   6.7815898   0.0301851
  53.5258013   6.9708846   0.8089413  81.7961979  28.0817676  49.1694355
  81.4130783  28.2460952  48.3077812  81.0953236  27.6602554  49.6667528
  49.2382233  65.6015228  13.2598080  50.0908367  65.9299873  13.5451092
  49.0670769  64.8522423  13.8303532  25.9253908  73.3803271  12.2693695
  26.2769113  73.4397219  13.1576981  26.6253258  73.7198018  11.7116226
  64.5421044  75.9165643  27.4955906  65.0793330  75.9472059  28.2872261
  64.0871899  76.7586468  27.4821152  26.2397528   2.0763284  61.9529295
  26.9576240   2.6746255  61.7457199  26.6693020   1.2400593  62.1328592
   6.6517001  61.7478037  34.8091483   6.8127680  60.8983183  35.2198386
   5.9902751  61.5691090  34.1407037  17.8871357  11.7213833  68.8614941
  17.2384167  11.9192278  68.1860256  17.4433982  11.1082399  69.4474792
  13.4362650  48.4953356  54.4569826  14.2907250  48.0891705  54.6024418
  13.6401260  49.3798590  54.1531897   9.6081028  25.5253432   5.5619206
   8.6979375  25.7584784   5.7449021   9.9747667  25.3019736   6.4174332
   2.0113488  74.1213369  57.4958897   2.7730155  73.6429119  57.8233051
   1.2875602  73.8264465  58.0485201  23.2540934  67.4756573  26.3133015
  22.3304288  67.4856161  26.5642513  23.6587225  68.1472372  26.8623795
  78.7787668  81.5401672  10.6258930  79.1366236  81.5200161   9.7383274
  78.9026205  80.6496571  10.9543480  19.9649668  24.4431615  64.2408085
  19.5181072  24.6971560  65.0482941  19.3134308  24.5804596  63.5531425
   1.4925964  22.9141378  67.6678133   0.6717400  22.8280950  67.1830225
   2.1562798  23.0533385  66.9922543  47.3407881   0.2856111  64.1473866
  47.3848216   0.6142091  63.2494402  48.0048196   0.7882642  64.6192169
  17.7967963  36.6588280  11.9352307  17.6393637  35.9117243  12.5125279
  17.8323922  37.4129222  12.5237049  54.7622992  68.1637217  68.2438374
  55.5285739  68.3138121  68.7974834  54.6829782  67.2109235  68.1978273
  28.3929951  75.0341319   3.8287510  28.2294957  74.0911006   3.8148560
  27.5917576  75.4213523   3.4761728  78.2580034  66.8584822  31.9957031
  77.6310102  66.7179130  31.2862267  77.8860514  66.3868807  32.7409996
  14.2242703  25.1415036   2.3799147  14.9566731  24.6809981   2.7894940
  13.8537535  25.6752370   3.0828203  25.0353193  39.0294909  55.3364849
  24.4127703  39.1052675  54.6133518  24.8752260  39.8060536  55.8727264
  40.4710340  37.0988083  31.2735391  40.0797844  36.4261150  30.7161903
  40.3555536  37.9128623  30.7834220  79.3664869   9.9894974  18.9933361
  79.2712935  10.2165578  19.9183335  78.7652072  10.5794737  18.5387863
  23.3286643  50.3055334  34.0592647  24.1459441  49.8165989  33.9631939
  23.5952282  51.1474466  34.4285274  10.8168685  50.4418230  38.5526037
  10.9992683  51.3096952  38.1923842   9.8617470  50.3966379  38.5965633
  71.2074463  65.0625347   7.0661558  71.8248646  64.3339180   7.1305288
  70.3465693  64.6567200   7.1683182  21.0442924  19.3662763  47.5921822
  20.1479673  19.5009518  47.2844553  21.5937901  19.6772957  46.8727684
   3.2629547   0.0111029  21.2619461   2.6312813  -0.4145982  21.8415989
   2.7921781   0.7653067  20.9072937  22.0526242  60.7380819  47.1642542
  21.4703369  61.0010433  46.4514923  22.8370929  60.4106331  46.7242336
  13.9289460   5.9366725  21.3078179  14.5632825   5.9535334  22.0244469
  14.3842015   5.4877160  20.5954899  20.1383567  65.0611162  69.3229055
  20.8911276  65.2378082  68.7586832  19.6575809  64.3678665  68.8707018
  21.4417839  80.2309418  58.6222315  20.8665824  79.7360134  59.2056799
  22.2198701  80.4116249  59.1496420  84.1379675  16.8419144  13.6554112
  83.5658297  16.9358513  14.4170250  84.9481281  16.4740870  14.0083660
  86.0307543  63.2783340  17.1301426  86.8261091  62.8700374  17.4721111
  85.4975979  62.5447343  16.8238701  51.3977830  68.8213037  35.3205647
  52.1849601  68.7124013  35.8541550  51.6467468  69.4619654  34.6543755
  57.4823708  22.6064608  16.5740742  57.0627650  22.6104186  17.4343933
  58.3060233  22.1385358  16.7114605  28.2392502  41.6257095  22.7920651
  27.8783774  42.1163273  22.0536208  29.1764402  41.5679216  22.6061392
  84.3656429   2.0717547  20.7870354  84.3352994   2.3303626  19.8659386
  85.1162013   1.4805625  20.8452286  16.4263511  36.9452882  51.6258669
  16.5157020  36.1354256  51.1234999  17.2856200  37.0740342  52.0275068
   9.0630722  54.8077154  43.9084387   9.3861103  54.7291374  44.8060513
   9.0303701  53.9070654  43.5859585   5.5663979  30.4239273  51.1701918
   5.9352899  30.6513405  52.0236731   6.2130046  29.8367786  50.7785463
  21.1271367  11.3752864  22.1761192  21.8831191  10.9240458  21.8004860
  20.5329547  11.5034363  21.4366974  76.7686766  17.8540754  60.6510305
  77.1504044  18.5863972  61.1349916  76.0379171  18.2407331  60.1686192
  17.9992914  54.6384954  62.6375437  17.3466969  53.9443302  62.5454187
  18.0000985  55.0806713  61.7886019  81.5142482  24.5011711  28.0962706
  81.7841213  25.1202631  27.4179459  80.5577790  24.5373130  28.0867052
  24.7596645  48.1717300  56.7133999  24.9537253  48.9352512  56.1697054
  24.6629405  48.5256100  57.5975084  69.1616580   8.8612578  45.7004513
  68.5113927   9.4514582  46.0813011  69.9177417   8.9296363  46.2834610
  81.9853240  55.7949400  49.5689011  81.8075808  56.5368843  48.9908361
  82.9400971  55.7295561  49.5880079  44.7616720  49.7635078  61.7180157
  44.8790741  49.7281885  62.6673317  45.3818369  49.1196442  61.3758659
  72.3003551  48.8684247   9.0260662  73.0604633  48.4292481   8.6445011
  71.7304739  48.1548665   9.3129601  48.2156996  74.2116617   5.0219692
  47.5021450  73.7600373   5.4726423  47.8075926  74.5840930   4.2403187
  82.4302380  78.0469917  14.8818745  82.4566357  78.7309097  14.2127098
  83.1774132  78.2377742  15.4489388  80.8361086  15.4274485  24.4289650
  80.2726730  16.0834429  24.8393883  80.5640635  14.5982525  24.8222412
   3.1256303  55.0977395   7.0730986   3.7768731  54.6102307   7.5775303
   2.3676071  55.1570580   7.6545729   4.7735310  21.4702249  56.9886541
   5.6420804  21.3473749  57.3717499   4.9040700  22.1273160  56.3049698
  46.7826557  31.3115931  61.9078112  47.4167156  30.6051111  61.7849874
  46.8608713  31.8439317  61.1161518  59.9088613  81.3028930   0.5228581
  59.4602410  80.6042503   0.9991707  60.6230156  81.5677045   1.1025871
  32.4086618  50.9745932  63.5821724  31.5639877  50.5277443  63.5266256
  33.0401587  50.2737856  63.7443638  22.7348733  49.3446445  67.0665121
  22.0271087  49.2370558  66.4311218  22.3545933  49.8844194  67.7595282
  66.5653555  79.8775028  35.7254280  66.0644929  79.4302414  36.4075722
  65.9517138  79.9647902  34.9960007  57.7768580  66.2008022   2.5930657
  57.6923196  65.8412884   3.4761490  56.9200675  66.0548566   2.1920170
  54.9440479  27.3661661  71.0451317  54.7532654  27.7009296  70.1689100
  55.5383015  26.6306615  70.8963871  17.8034711  56.4013052  43.3212709
  17.0982277  56.6389608  43.9232540  17.5051761  55.5892849  42.9115438
  36.4153528  33.0571818  46.3710594  35.9799075  32.2510862  46.6482401
  35.7064128  33.6942673  46.2829781  24.1589761  60.0645638  66.9300079
  23.7141800  60.6224155  67.5681210  23.5194468  59.9472046  66.2275410
  30.3177285  34.0323591  53.7367678  29.4285917  33.7245250  53.5609579
  30.7665253  33.2709408  54.1042662  85.3248016  75.2824400  34.8567356
  84.5739357  74.8901604  34.4111504  85.5974619  74.6217559  35.4934277
   0.7952919  52.6822805  69.3750572  -0.1520851  52.6195765  69.4966173
   1.1545444  52.6273775  70.2605820  35.2905273  26.0023165  49.1359949
  34.5133209  25.4843974  48.9263678  35.9736347  25.3526807  49.3020296
  85.4290333  30.8927035  45.7547665  85.6259591  31.2791109  46.6080761
  84.5401158  31.1879349  45.5575466  50.3149144  81.1172842  13.9923729
  50.1190273  80.4037212  13.3851780  49.9136226  81.8889021  13.5926117
   6.1090577  44.9401426  21.3254929   5.3037637  44.8611832  20.8141232
   6.6903979  45.4668665  20.7770061  34.4772039  58.5125981   2.9666294
  34.3634192  58.5825728   3.9144625  35.4199640  58.3987425   2.8463282
  13.9904964  33.7913465  41.7008352  14.4836247  34.5628572  41.9798183
  14.2904472  33.0923462  42.2819185  66.6849224  79.1514634  12.2618355
  66.0371344  78.5767029  11.8540920  66.9194214  79.7741841  11.5737499
  84.1055786  61.1330938  66.3944149  83.6087930  60.9242249  65.6033325
  84.8410844  60.5205917  66.3840532  38.0401874  40.9322166  69.7924137
  37.9273891  41.0870647  68.8545799  37.1936846  40.5924129  70.0825787
  12.6061130  38.2537794  51.5660286  11.7419982  38.2637501  51.1543989
  13.1169963  37.6422405  51.0356951  69.7167679  13.2630656   8.0998100
  69.8773619  13.9609978   7.4647297  69.1140779  12.6677487   7.6541676
  15.8871508  33.1327987  57.3362970  15.8941901  32.9609179  56.3946819
  15.1433825  33.7210155  57.4668407  11.4014420   0.4917214   4.3011488
  11.2179932   1.4065764   4.0875639  10.8278117   0.2992604   5.0428642
  11.5351901   5.9851477  13.0527367  11.8248353   5.0959752  12.8485169
  11.1058030   5.9074423  13.9046921  38.7080026  44.5827675  65.2898550
  39.6539354  44.7290277  65.2971888  38.3703470  45.1649570  65.9705019
  28.5027289  37.0280313  32.2270513  27.7701855  37.3924947  32.7238226
  29.2057085  36.9354749  32.8700781  52.8463984  25.2548981  67.9842901
  53.5613585  24.8218203  68.4506702  52.3213816  25.6605482  68.6742496
  10.2158117  49.5511675  66.9629145   9.2600524  49.5749283  66.9160986
  10.4367268  50.1663685  67.6621723  53.2270400  61.0730933  13.4221329
  52.2713224  61.0200237  13.4266724  53.4574239  61.1649536  12.4976219
   2.0350418  22.7356551  23.4414829   2.0908818  21.7892907  23.3091797
   2.0890412  22.8484175  24.3904843  71.4361422  73.8082717  17.4787964
  72.3676388  73.8158153  17.2586025  70.9906427  73.7521337  16.6334500
  19.6571553  24.3756700  51.2746143  19.0786862  23.8681412  51.8438435
  20.3219032  24.7312617  51.8644476   4.2366013   0.3469060  12.3196854
   4.2689738   1.1990807  11.8849625   3.3025179   0.1711342  12.4329342
   2.8743538  46.5124607  68.2048607   2.2371596  47.1255875  68.5713196
   2.3792061  45.7044172  68.0702400  84.4627079  46.2106488  22.5739922
  85.2366694  45.6583378  22.6843228  84.4530591  46.4259312  21.6413654
   1.6826687   8.2963441   7.5032963   1.0725293   9.0338347   7.5114884
   1.1760411   7.5624726   7.8511347   0.2605668  72.5080919  30.3554916
   1.0680061  72.6159382  30.8581281   0.4308002  72.9598951  29.5289755
  50.0762129  46.0090780  54.1788197  49.2963982  45.4983330  54.3962193
  50.8042145  45.4952240  54.5283937  43.4841681  54.5466709  69.1752052
  43.9778566  55.0175714  68.5038233  44.0969467  53.8904381  69.5069981
  72.4296562   0.9744882  61.3339567  72.9657213   1.0443734  62.1238852
  71.7036192   0.4042863  61.5868759  48.7357998  68.5449648  47.6284599
  49.4728279  67.9349232  47.6579618  47.9832697  68.0004263  47.3973799
  11.0236442  75.4941463  43.0392313  11.7533576  74.8886967  42.9081440
  11.1603165  76.1792135  42.3848343  34.0404749  36.7504025  69.8322010
  34.6697116  37.0358658  69.1697788  34.3974924  37.0769048  70.6581306
  42.2660732  56.8276358  56.0621786  41.3309860  56.6233110  56.0717440
  42.3968649  57.3129940  55.2475929  80.8885964  19.7403882  20.9462704
  80.5960616  19.0626500  20.3369011  81.1799940  19.2575047  21.7196716
  46.0467605  76.4934729  62.3753990  45.3766720  77.1658753  62.2525658
  45.5558829  75.6736802  62.4320568  15.2562747   0.4266331   6.0926356
  16.2032828   0.2991793   6.1488928  15.1459870   1.3748381   6.0221399
  64.3973176  76.0497354  18.7448086  63.9833252  75.6634139  17.9730572
  65.1668183  76.5040110  18.4016861  44.6316573  15.6368897  16.7492165
  44.7997269  16.5752242  16.6625275  45.0979670  15.3826068  17.5455345
   3.0210504  42.7914095  53.6374283   2.6879692  43.6644173  53.4297037
   3.2914639  42.8500080  54.5537663  20.1881671  62.5289297  62.7173328
  19.4613850  62.0972824  62.2682190  20.0460672  62.3352575  63.6438990
  41.1362267  75.0161409  65.3445768  40.4579210  74.7128773  64.7411203
  40.6947708  75.6620121  65.8961201  25.6199503  42.4878883  38.3913064
  25.6299090  42.4090052  37.4374127  25.4364228  41.6016674  38.7030172
  42.1816067  61.5561913  17.6341404  41.7210285  62.2836374  17.2159065
  42.6688699  61.9618391  18.3512558  49.9375704  30.0862763   3.1404843
  50.2774444  29.2242310   2.9004826  48.9917662  29.9587987   3.2142128
  49.2170231  25.8648418  26.2131752  48.4285907  25.9508716  25.6772675
  49.7376959  26.6390287  25.9992470  25.8758483  12.1102164   6.0219111
  25.4538474  12.0349810   6.8777670  25.9217105  11.2108061   5.6975855
   2.8406629   2.7137683  30.1176895   3.0597839   1.7820857  30.1042618
   3.2507620   3.0676625  29.3285050  22.3548269  27.0071578  55.6616974
  21.6941833  27.3301911  55.0489759  22.1797895  27.4813151  56.4745760
   6.1230359   3.1328890   9.0676178   5.4812393   3.0884764   9.7763886
   5.5969581   3.1354783   8.2679524   2.5630817   9.3124459  12.2989239
   3.2895813   9.0581677  12.8679337   2.9313049   9.9856684  11.7267193
  19.7234273  48.2241011  63.6963844  18.8738286  48.5633659  63.4147596
  19.7993541  48.4973764  64.6106005   4.3950829   6.8497965   6.1207594
   5.0383291   7.0883629   6.7882599   3.5784707   7.2481940   6.4218487
  72.8499126  18.1087029  54.5617914  72.4412453  17.7823913  53.7600756
  72.7166962  19.0560555  54.5300722  39.0697098  30.6687331  55.0641298
  38.6060905  31.5060186  55.0485754  39.0505862  30.3674507  54.1557837
  44.4462681  35.1809669  54.2456675  43.5538387  35.3526759  53.9451361
  44.7363472  36.0119486  54.6219063  10.4067397  11.0037684  30.2237606
   9.4798994  11.2429070  30.2203536  10.4296529  10.1397431  30.6350589
  21.1383414  20.9156704  50.3229475  21.7643905  20.5824637  49.6800900
  20.3322721  21.0505629  49.8246622  33.7448964   9.5491812  19.3079724
  34.2987141  10.1592562  18.8208069  33.5324988   8.8619254  18.6764683
  74.0771715  45.5962144  16.5459503  73.7785999  44.8814909  15.9835781
  73.5565273  45.5064421  17.3441281  69.3709938  80.2694105   2.1817936
  69.5849125  80.7091712   3.0046429  70.1425020  79.7374009   1.9869293
  46.3922803  80.1309942  35.0189175  46.6533343  79.2133258  35.0961556
  45.4376702  80.1038002  34.9540199  68.4794756  11.9091771  13.1687607
  67.6462492  11.9615433  12.7005448  68.2318267  11.8020651  14.0871395
  29.3617507  28.4824906   0.0342096  28.7291622  29.0436326   0.4827418
  30.2022965  28.9238380   0.1563849  69.1291182  61.8200015  16.6254296
  68.9717190  62.2873043  15.8050121  68.4242098  61.1741351  16.6722359
  48.7509980  29.8496983  12.0158161  49.0872803  28.9535926  12.0038571
  48.8753053  30.1641390  11.1203255   8.5442799  21.3969707  60.5462122
   8.1617194  22.1117663  60.0373459   8.6689955  20.6912518  59.9116707
  16.1299360  54.5083380  27.8524709  16.3481605  53.9274168  27.1236777
  16.9638407  54.6569538  28.2982826  83.7769318  44.5109463  53.3450270
  83.2430267  44.6104288  52.5568151  84.3707371  45.2615166  53.3283997
  17.1457028  59.0118599  65.1475286  17.0480037  59.7587490  65.7381582
  16.5265059  58.3616209  65.4792118  19.2614827  22.1676371  26.3223709
  19.4028220  21.9121716  27.2339596  19.1512189  21.3391564  25.8557953
  18.6539158   2.0076964  20.2522244  18.7652478   1.1534808  19.8349060
  19.3707356   2.0606825  20.8843578  31.3848576  15.8066342  33.4250511
  30.9940562  16.4487956  34.0176167  32.2227702  16.1936495  33.1713547
  65.6878593  31.1460660  10.7345547  65.9647438  31.0226128   9.8266281
  66.3686058  31.6979096  11.1196388  11.5895829  19.1152070   2.5888313
  11.4935431  18.8016961   1.6895451  12.5055060  18.9419863   2.8063406
  65.5914680  69.6396588   4.9958243  66.4896767  69.3701123   5.1876511
  65.6617395  70.5689667   4.7774567  18.0671963   4.1980240  29.1041340
  18.7777266   3.5777733  29.2674221  17.2813973   3.6538861  29.0525116
  27.3919463  43.8420105  63.6141968  27.6534104  44.7182751  63.8970900
  28.2073426  43.4286833  63.3304262  24.5981583  12.0652602   3.5686459
  24.2939124  11.1607478   3.4943594  25.0091776  12.1095727   4.4319691
  81.4154713  41.0729453  11.3776745  80.9113590  41.3041098  10.5975022
  82.3290865  41.1796222  11.1128010  36.1363396  12.4784587  10.6231465
  35.5904851  11.9335864  11.1900677  36.8427310  11.8975804  10.3406109
  83.9918837   0.6286833   4.1588415  83.3294090  -0.0024392   3.8776936
  83.9936789   0.5646060   5.1138939  41.5418100  11.8768156  25.2349401
  41.1056614  12.1446693  26.0438013  40.8957958  11.3341010  24.7828817
  40.8081102  16.1406660  55.0809240  41.2531185  15.2944231  55.0354290
  40.3073883  16.1920440  54.2667580  18.7702267  71.0335110   7.2683634
  18.7661581  70.0889085   7.1136297  19.6979587  71.2648271   7.3135056
  35.6386042  10.7305837  64.3071413  36.5334487  11.0247362  64.4773197
  35.7436156   9.9189508  63.8106966  25.4283318  16.0664246   3.5230364
  26.2210450  15.9006426   3.0127920  24.7666964  15.4977868   3.1291880
  73.9489643  59.8139249   7.4841704  73.0451195  59.5838080   7.2689022
  73.9455168  60.7693528   7.5422968  35.6335378  23.7565613  45.4906273
  34.9494481  24.2900658  45.0861216  36.3469911  23.7578297  44.8524904
  -0.1389757   8.0807374   2.3463978  -0.4743853   8.7032387   2.9915537
   0.8128557   8.1597874   2.4096073  52.6460811  38.8321850  18.0432381
  52.7957597  38.3119033  18.8326325  52.9009151  39.7211239  18.2903923
   0.8261046  18.0387328   6.9667544   1.3313470  17.5535081   7.6190724
   1.4837513  18.3854411   6.3638224  46.6111772  51.4724301   0.7308878
  47.1132640  50.6664460   0.8514275  47.2742168  52.1505736   0.6015410
  33.2814193  65.0387764  47.6453543  34.2161489  65.2395582  47.6922417
  32.8836632  65.8323336  47.2871733  71.1395546  28.6395667  14.8561825
  71.8136319  27.9641125  14.7813000  70.3266427  28.1527064  14.9917282
  43.9092636  22.8801370  60.1042032  44.7320127  22.9356837  60.5902338
  43.9950037  22.0850086  59.5782280  46.0912228  18.0663657  71.0919380
  46.4989710  17.2036481  71.0165024  46.1109686  18.4192264  70.2023697
  38.5956454  20.2593708  38.8444328  39.0304828  20.6027865  38.0639124
  39.2231202  19.6384656  39.2145467  54.9849240  75.7000874  10.4297508
  55.5907909  75.2758859   9.8221268  55.3704659  75.5538415  11.2935795
  39.7167683  36.1091924  43.5489511  39.9965119  37.0077491  43.3741045
  39.1354537  36.1823201  44.3058920  45.4330587  20.4438686  54.0757275
  45.2789736  19.5626676  54.4162750  46.1504936  20.3372025  53.4511185
  35.2796636  66.4355587   9.5356144  35.7585065  66.8599032  10.2475609
  35.9259288  66.3397239   8.8360514  19.0279758  63.1908798  67.7334976
  19.6258271  62.8360367  67.0755529  18.6466229  62.4189568  68.1517458
  73.4097330  11.9632672  46.2332249  73.4050266  11.4199876  47.0212984
  73.2499783  11.3482331  45.5173731  32.5103855  58.5843468   7.6739693
  32.7844214  59.0109348   8.4858549  32.1422791  59.2915440   7.1442521
  15.3170109  37.7534795  64.4394493  14.5508611  38.2573295  64.7140074
  15.6638205  38.2350659  63.6884308  22.7229199  24.3320582   3.1160511
  23.2739577  24.4050954   2.3367848  23.0057559  25.0535748   3.6778750
  78.9484867   6.0440228   3.0857433  79.2645558   6.9083283   3.3490194
  79.6665558   5.6721947   2.5735392  33.2561469  75.3216171  64.9488640
  33.5105014  74.6644735  64.3010235  33.9211011  75.2525234  65.6339121
  68.9614820  54.4547319  59.5228624  68.8707113  54.0214252  60.3715324
  69.4948721  55.2284384  59.7048092  70.7839584  33.4996510  66.0463905
  71.4065456  33.4207630  66.7691565  71.3182402  33.7654328  65.2979708
  56.1384062  15.6701729   1.9067301  56.8774934  15.8525870   1.3264670
  56.3619837  14.8388646   2.3252691  45.7283239  74.0878247  18.6330189
  45.0292675  74.7373937  18.5581173  46.5249340  74.6056031  18.7494148
  45.0572586  26.6642809  65.6803465  44.1722965  26.9633627  65.4714775
  45.0594854  25.7374048  65.4413271  26.2335730  35.3431654  40.0011110
  25.5058718  34.7265625  39.9205875  26.7871475  35.1608253  39.2418098
  75.2298709  38.5945103  33.8371815  74.8993083  39.4560502  34.0915550
  74.6610173  38.3228133  33.1168904  25.7456574  18.5605643   9.9914612
  26.2943587  18.2637475  10.7174458  25.7657227  17.8372977   9.3647923
  72.0839254  48.2459788  19.7216190  72.3411934  48.9909767  19.1784634
  72.0969479  47.4981980  19.1242184  65.4845413  18.4633181   8.8506903
  65.8326324  18.8964198   8.0712761  65.1612380  17.6205609   8.5321488
   2.3380336  27.4518273  14.5347466   1.5348682  27.9235528  14.3142189
   2.1683726  27.0819876  15.4011501  22.4437222  62.2885583  17.2292198
  22.3753962  61.8595288  18.0821575  23.1993899  61.8743012  16.8125881
  71.2401001  36.9180726  68.4421396  70.3871099  37.2664308  68.1827402
  71.5074770  36.3669538  67.7066040   7.5042535  35.5695581  61.1435461
   7.4447632  35.6011295  62.0983744   6.5974141  35.4824448  60.8498144
  55.8571927  76.3482283  28.0205406  56.3447468  76.0854863  27.2398438
  56.4649145  76.9061469  28.5059609  78.7207930  13.3737992  50.3869390
  78.6892120  12.6721620  49.7365999  78.3541576  12.9822396  51.1797094
  27.3037133  35.4776833  23.7238659  26.4571366  35.0912116  23.9478745
  27.6012692  35.8893559  24.5351757  32.0991874  71.2943745  33.2739758
  32.1769786  70.3403473  33.2772803  31.6580153  71.4958525  32.4487448
  55.6516171  49.3788433  46.6491604  55.8313179  48.7757969  47.3704624
  56.4426851  49.3510056  46.1109591  44.0811348  53.5684919  58.6498260
  44.8131180  53.0027390  58.4041500  43.7200785  53.1640291  59.4386721
  78.9947590  41.4209435  18.5464539  79.9160084  41.2503026  18.3504643
  79.0046414  41.8170807  19.4177784  11.9930920  35.8023379  38.4223999
  12.4991402  36.6114876  38.4960236  11.5355858  35.8812974  37.5853314
  58.8574330  76.1895202   2.2361578  59.6336953  75.8474158   2.6795687
  58.6169664  75.5049013   1.6118969  35.6473622   9.4990037   8.6164154
  35.6948409   8.9249537   7.8519310  34.7210679   9.7302840   8.6851134
   3.9410338   2.7337525   2.3428835   4.0287909   3.5251353   1.8116202
   3.1387338   2.8711341   2.8465428  39.1657719   9.0364096  21.6623749
  38.7742457   8.1663630  21.7395558  39.2843566   9.3267748  22.5667347
  45.6443772  11.5628169   8.5601772  45.0298199  10.8329604   8.4836020
  46.3137087  11.2495158   9.1685118  37.8453241  24.4275617  43.9652205
  38.1090222  24.4507264  44.8850918  38.6038463  24.0648889  43.5076809
   8.4287533  29.9779437  18.6321510   7.9761037  29.5448611  17.9084171
   8.4939227  29.3056986  19.3104328   6.5377578  31.3206313  20.6789173
   5.6432209  31.2963364  20.3391518   7.0476017  30.8128712  20.0476803
  84.4819411   2.3841355  30.2114739  84.5662507   1.6883395  29.5595612
  84.0351614   1.9685195  30.9489597  58.5536289  32.6967382  52.3699427
  59.4226360  32.9648185  52.0712948  58.2659912  32.0528793  51.7226887
  67.5153296   2.0939492  58.5599947  67.6767461   2.0841836  59.5034361
  68.2172982   1.5576982  58.1913424   5.3933954  65.8312464  69.0450382
   4.9427792  65.2134657  68.4692574   6.3208055  65.7217026  68.8349342
  13.6283908   3.2519076  12.0216717  14.3447957   3.8859866  11.9910015
  13.9152703   2.5386307  11.4514317   7.7166590   0.9034274   9.4945587
   7.2281251   1.6814587   9.2257847   7.6800475   0.3231070   8.7342133
  77.0339394  46.2444115  40.4964161  76.7923641  47.0922184  40.8693743
  77.5117731  45.8016300  41.1977339   2.4354933  56.6233444  70.5123520
   2.4587730  55.6955004  70.2782726   3.3447739  56.9125032  70.4360199
  70.8498716  63.0144548  44.8507500  71.3915205  63.6799002  45.2750587
  71.4730501  62.4679708  44.3719673  17.7192975  76.4563322  57.7671289
  17.4577523  76.1749315  56.8904114  18.1820489  77.2821856  57.6255035
  50.9926335  71.1186431  16.8872418  50.3211896  71.5431975  17.4212326
  50.8132927  71.4166521  15.9954704  36.7355442  59.8788881  68.8547897
  36.9764328  59.7870684  69.7766209  37.3239756  59.2817402  68.3928442
  84.8825201  49.8279450  25.2848210  84.1376051  49.2416546  25.1521649
  84.4871124  50.6726811  25.5000080  61.1262369  69.6617651  67.3236513
  60.4311848  70.1844835  66.9237804  61.6502619  70.2951145  67.8140640
  40.0704288  70.9240198  42.0081377  40.0867987  69.9835682  42.1856642
  39.4317174  71.2739325  42.6292992  80.0981530  16.3141844  33.3653893
  80.8330091  16.8350957  33.0415501  80.4716834  15.7854769  34.0704979
  35.5147004  60.7596636  57.0427895  36.2343168  60.9111691  57.6555157
  35.3270411  61.6234207  56.6754484  85.6546633  77.8411268  23.4805264
  84.7243111  77.6324009  23.5648789  85.8871071  77.5474332  22.5996460
  21.4468703  46.9088624  17.8007187  21.8640885  47.0406125  18.6520733
  20.5392823  47.1823285  17.9338802  66.2936783  55.6402016  48.3722687
  66.3060999  54.8925829  48.9698792  67.0718431  55.5240107  47.8271103
  27.9746008  68.3722115  57.3920393  28.4762764  68.5191536  58.1938887
  27.5793791  69.2220640  57.1976519  24.3000071  78.5267304  32.9818310
  23.8579886  77.9910849  33.6405720  25.0154917  77.9751943  32.6654209
   9.2773351   6.8380044  21.4727940   9.9950442   6.2573979  21.2197651
   8.8937721   7.1205447  20.6425633  33.3590651  55.4800034  63.6286688
  33.8795161  55.0225925  64.2890739  33.5620165  55.0289488  62.8091621
  37.4873671  14.4516108  12.6255097  38.0263457  14.8950837  11.9704785
  37.1573147  13.6731312  12.1768917  68.4636037  71.3560628   9.5205082
  69.1462986  71.0900401  10.1364483  68.0191915  70.5405973   9.2886795
  16.6610942  34.0349743  21.6435875  15.8201394  34.3828128  21.9402851
  16.5083394  33.7835095  20.7327332  80.1824991  11.0498189  44.7765684
  80.7804625  10.3505754  44.5125151  80.7050173  11.6065072  45.3538990
  16.3733768  54.9946928  53.3554363  16.6651869  55.7178640  53.9105082
  16.7758060  54.2176056  53.7432671  78.7734112  30.0542472  20.1438107
  78.7040504  31.0087941  20.1598896  78.1297120  29.7564671  20.7866253
  51.0828495  79.2712021  68.1499481  51.1325741  78.3616877  68.4441280
  51.1289120  79.7863150  68.9554071   4.1573517  69.9029039  13.6002125
   4.5370572  69.5834588  14.4187512   3.9388030  70.8176087  13.7784828
  65.3120963   2.8130483  59.8437309  64.7620742   2.3360871  59.2222691
  66.1926715   2.4668073  59.6990204  52.8087792   5.4302094  10.6584896
  52.7237305   4.4779418  10.7052483  53.5945878   5.6258366  11.1688389
  78.0916389  41.5159581   6.3444246  78.5201272  40.6902192   6.5697540
  78.7068995  42.1910069   6.6307844  10.1129684  43.1520722   5.4431690
   9.2379102  42.9334138   5.1227059  10.0268993  43.1478474   6.3964810
  29.9846601  71.1462736  34.9582911  30.6377292  71.2722254  34.2699099
  29.9867034  70.2029514  35.1206779  51.6543293  26.7639351  65.5485201
  50.7290649  26.6446137  65.7627153  52.0779610  25.9653926  65.8633184
  31.3831067  62.4874115  67.5531673  30.8317375  61.7107773  67.4579525
  32.0359182  62.4043655  66.8580627  19.0938037   7.1210717  62.2256517
  19.2276662   7.9587888  61.7823172  19.8971360   6.6291188  62.0557547
  60.7840967  31.3483214  47.4755764  60.9180593  31.8375492  46.6638231
  60.6541014  30.4436016  47.1912956  46.0454957   3.6234235  61.2999773
  45.0935738   3.6829042  61.2191248  46.2741343   4.2977189  61.9397259
  68.0779028  60.8810091  56.6600180  68.8535070  60.6848764  57.1855688
  68.2218170  60.4138470  55.8370495  69.2407640  27.5213978  24.8772778
  70.0297519  27.9051230  25.2600159  68.5340175  28.1077597  25.1473107
  28.5183367  45.3155301   6.7124809  28.6183629  44.4455884   7.0990433
  28.0592761  45.1595471   5.8871521  72.0751952  34.5536590  59.0302801
  72.9449891  34.1542888  59.0163803  72.2010874  35.4156947  58.6336994
  23.8427997  60.1117468  53.6660576  22.9041743  60.2910423  53.7214518
  24.2550588  60.8555365  54.1054296  36.8643556   4.8598718  46.6321564
  36.3883696   4.3077134  46.0118389  37.6381962   4.3467282  46.8647146
  74.5160147  24.5104430  15.4155411  74.6809837  24.5657895  16.3567890
  73.7478587  23.9443658  15.3398861  56.2240660  14.6107314  58.5988964
  56.1966800  14.4874690  59.5477261  56.1433944  15.5568144  58.4778465
  43.3251414  29.6865771  14.3364968  43.5403952  29.2316172  15.1506962
  44.1239676  29.6301148  13.8121761  17.6108966  21.7137787   7.1950258
  16.9323716  21.5410493   6.5423407  18.2864604  22.1945069   6.7167534
  43.2640879   0.9408998  62.1752024  43.4994249   1.8516683  61.9981670
  43.5736494   0.4599904  61.4076519  68.3630848  57.9499102  45.7925940
  67.5964880  57.5935555  45.3436279  69.0480518  57.2961140  45.6526041
  47.5826550  54.7399044  69.1977167  47.9512739  54.7933578  68.3159590
  47.5552559  53.8024998  69.3894386  66.4468050  67.2413063  50.8926344
  65.8407164  66.5004778  50.9005117  65.8818007  68.0125189  50.8454227
  71.5880346  73.9287472  40.6007624  71.5158701  74.5177507  41.3518286
  70.6991434  73.8789463  40.2491617  56.5107095  42.8822587  15.3188290
  55.8683984  43.5714123  15.4883351  55.9971937  42.1599267  14.9572052
  42.8107786  58.2298708  61.7426968  42.1443844  58.8426733  62.0535374
  42.9311037  58.4545994  60.8200645  17.1953559  38.6235499  49.4544935
  16.5881598  38.1706858  50.0396919  16.8052495  39.4883251  49.3271732
  21.6495213  11.7042754   0.7056774  20.8296475  12.1981499   0.6945481
  21.8297705  11.5185187  -0.2158628  22.5285992  45.6167576  28.7594189
  21.7462430  45.6742261  29.3079151  22.6899418  46.5170834  28.4772553
   2.6981935  20.9042094  16.7831577   3.3304462  20.5979464  17.4333061
   2.5520858  21.8236373  17.0057263   8.1988892  31.3478634   1.7168678
   7.9172263  30.5111907   1.3468947   8.5221610  31.8452428   0.9656395
  31.4664483  72.2650671  68.3774757  30.9857845  72.8518438  67.7936172
  32.2121215  71.9669056  67.8566074  69.0591630  25.9854863  22.5158371
  69.5160409  25.1685641  22.7161755  68.9189776  26.3968728  23.3686794
  62.1224209   5.3916857  21.7229332  62.9658761   5.8397887  21.6595520
  62.3377713   4.4628213  21.6388573  67.9637043  10.5602883  53.3484650
  67.0550792  10.5195760  53.0501842  68.0023067   9.9478387  54.0830708
  85.1730429  62.9320192  70.4158640  86.0876817  62.7223778  70.2268696
  85.1522108  63.8875628  70.4681826  13.8459096  38.2051489   6.1243261
  14.5229993  38.0688689   5.4615988  14.1311059  38.9844535   6.6013827
  72.9939851  50.5913232  22.0018353  73.6571726  50.0433037  21.5821995
  73.0463013  51.4274857  21.5388741  61.0428715  66.3328409  61.3097763
  61.5030861  65.9944487  62.0778418  60.6556892  67.1565294  61.6061783
  14.5612335  55.8598089  61.3329363  14.0519643  55.5249405  60.5948687
  14.2462933  56.7555046  61.4544821  85.6936487  14.0556119   8.0784525
  86.0341605  14.3428252   7.2312273  84.9179062  14.5979188   8.2211174
  64.1052198  53.0215883  65.6445551  63.3470726  53.4781218  65.2798414
  63.7294245  52.3509979  66.2149191  47.3301935  64.2209101  61.5273380
  47.9728317  63.5209894  61.6429234  46.9255733  64.3192863  62.3892212
  46.4304003  27.7753518  25.5423512  46.1196313  27.2310803  24.8188652
  46.6880831  28.5992215  25.1287426  52.5628185  61.6135406  67.8207588
  52.9796219  61.0485315  68.4713554  52.1559763  61.0068703  67.2021580
  55.1275730  78.4122038  61.0547829  54.8372746  77.5868464  60.6665182
  54.7858477  79.0864277  60.4675198  55.3143215  27.9533625  68.4683609
  54.4752264  28.2177925  68.0912304  55.7880116  27.5511432  67.7403021
  61.2589336  74.0215577  65.1678419  61.8986819  74.3138171  65.8170986
  61.3060800  73.0660082  65.1984072  21.7907366  32.8826735  17.6552452
  21.4128909  32.0239804  17.8452648  21.2321458  33.2430432  16.9665112
  79.3539247  56.2812207   0.3619970  79.7463426  55.4736588   0.0302042
  80.0524887  56.9321606   0.2948202  30.7432065  10.5409548  14.4874825
  31.3266883  11.1171553  13.9937462  31.1829600   9.6907923  14.4793572
   4.2343530  11.3532469   6.0343804   4.1617736  11.7192719   6.9158520
   3.6328206  10.6086705   6.0339464  11.0379506  39.6751785  70.4382944
  11.2406636  39.7278523  69.5042896  11.8558789  39.3894029  70.8451653
  30.6457410  10.8808015  25.1230873  29.7017703  10.9483168  24.9795880
  30.7284054  10.4643223  25.9809651  69.1337101  67.2963260   0.1297058
  70.0594894  67.3530935  -0.1068102  68.9583675  66.3570856   0.1872744
   8.9535579   7.5963709   6.2886013   9.5486602   6.8796370   6.0686554
   9.3127284   7.9670832   7.0947088  33.4616828  43.9022589  60.3741503
  33.3378100  43.4858322  61.2270737  33.8185358  43.2091236  59.8187685
  66.8072721  11.4279244  15.8732380  67.6667627  11.2951968  16.2731041
  66.3645920  10.5849621  15.9716095  19.0335524  30.7798815  69.6926832
  19.2630243  30.3360057  70.5091095  18.1406271  30.4903173  69.5054150
   3.5678587  28.8822196  12.3866619   3.2098040  29.1049311  11.5273441
   2.9030404  28.3203480  12.7848496  76.3273605  19.8383258   8.1896557
  76.9265219  19.8042367   8.9353623  76.2162801  18.9238331   7.9296650
   6.4085040  29.6881364   7.8831400   6.2506184  29.6389363   8.8259472
   7.3088417  30.0041506   7.8072371  45.0251965   7.6044034  62.3742533
  44.7928695   7.4868726  61.4531469  45.1947121   8.5425042  62.4606943
  63.1212807  57.5786877  69.7486877  62.1727610  57.4506998  69.7614384
  63.4298086  57.0129490  69.0408897  36.4747557   1.1748049   3.4455456
  37.4007020   1.4112017   3.5000815  36.4772448   0.2608798   3.1609978
  67.3159091  10.0296640  29.7864532  66.8477194  10.6095361  30.3871012
  67.5757710   9.2838906  30.3273010  15.8025584  23.6587117   3.7970890
  15.9910187  22.7709887   3.4926953  16.6534505  24.0057442   4.0650095
  14.6773148  50.9945011  68.9315414  14.4062234  50.7747507  69.8228598
  14.5495797  51.9410658  68.8688421  11.1831650  31.1837027   5.9637560
  11.5525422  31.9539139   6.3956894  10.8378992  31.5162537   5.1352419
  49.9819830   7.5394271  24.3559517  50.5489549   8.0487654  24.9350514
  49.0960040   7.8309844  24.5710529  30.8411074  68.9753914  69.6719837
  31.2582612  69.4971037  70.3575706  31.2915301  69.2328739  68.8675880
  30.9436224  81.8898891   5.1574482  30.4592752  81.0763239   5.0169195
  31.2544460  81.8305992   6.0608305  22.9300499  79.3816233  69.6829224
  23.4549332  79.9431515  69.1124678  22.0540833  79.7667122  69.6578836
  64.9735018  21.5498612  12.1693768  65.8940801  21.2876294  12.1697773
  64.9144491  22.2157595  11.4842953  32.7645144  36.3562987   8.7031807
  32.0868239  37.0265982   8.7907328  32.3528943  35.5556414   9.0283741
  35.7060146  79.0655518  66.8627834  35.7015061  78.4230328  66.1532879
  36.5768528  79.4608259  66.8224239  52.1356098   1.7723702  65.1984501
  51.5916149   1.5526246  65.9547663  51.5488235   2.2498464  64.6119976
  21.2954950  76.8657541  67.1401310  21.4454675  77.8098822  67.1887255
  20.3499413  76.7673779  67.2518587  79.0216931  31.9743321   1.4810528
  79.2214903  31.2270806   2.0449032  79.8076209  32.5194523   1.5183939
  65.6176869  17.2982358  65.1155996  66.1089508  17.4698304  65.9189987
  65.5719392  18.1476926  64.6767759  54.5496099   5.3846025  52.9376554
  54.9245207   5.9116696  53.6432505  54.1975300   6.0261010  52.3206091
  21.7175722  64.6791792  62.2696304  21.0910749  65.3837442  62.4349070
  21.2439704  63.8791895  62.4975538  49.4028330  64.9553108  70.1408720
  50.2647972  65.2386713  69.8360014  49.2730808  65.4264593  70.9639263
  43.1467772  58.5897732  58.7650394  42.5143957  59.1544771  58.3207035
  43.1447935  57.7799892  58.2546759  61.9841671  66.4518309  38.5541272
  61.1674595  65.9534550  38.5251260  61.7230082  67.3223305  38.8545656
  20.9600863  17.1952794   5.3505768  21.0304198  17.1139739   6.3017239
  21.8369517  17.4537680   5.0667967  81.6278545   9.1462182  67.8362083
  81.7229979   8.2125520  67.6479244  82.3772852   9.3557405  68.3936024
   2.9135022  31.2400649  27.8553547   3.6750874  31.7293236  27.5441612
   2.3356876  31.9069121  28.2264008  74.3867048  14.9081109   3.7302412
  74.0124318  15.0181363   4.6043362  74.5967707  13.9758656   3.6752524
  31.9448743  13.7293027  35.2139153  31.6051993  12.9347251  34.8022141
  31.8139681  14.4137881  34.5577301  37.5613618  72.9825258  56.0234690
  36.8453670  73.5142946  55.6759024  38.3516407  73.3686447  55.6458426
  48.5969338   5.0016091  21.8264546  47.8644070   5.6151316  21.8832554
  48.9199528   4.9304459  22.7246918   3.6829934  14.6019671  18.9861263
   3.4081492  14.3442748  18.1061901   4.5005784  15.0810549  18.8509907
  64.8247078  17.6503251  14.4608082  65.6032821  18.2067130  14.4829811
  64.5979818  17.5925229  13.5326447  25.3822303  65.1690054  52.3003101
  25.1904845  65.1996469  53.2376051  24.7763085  64.5143461  51.9531631
  75.9765014  70.1808808  19.2946686  76.7828366  69.6828244  19.4287934
  76.0115096  70.8750794  19.9527706  58.4816980  49.9711609  58.3324337
  58.4241819  49.0172720  58.2775068  58.5331106  50.2608538  57.4215698
  18.2970297  70.6155682  66.2349272  17.4945855  70.2579451  65.8548975
  18.3177662  70.2641964  67.1250629  58.7876241   7.8924703  57.7121639
  58.3899681   8.7225770  57.4494362  58.5644881   7.8026246  58.6386442
  44.3348441  29.4319794   0.1581635  43.6626086  28.7821410   0.3631939
  45.0533089  28.9230559  -0.2173887  21.4806637  29.6927045  11.0162701
  22.1540866  30.2233908  10.5907120  21.9657025  29.1268656  11.6169323
  60.6977002  79.6427845  25.2555432  61.6208760  79.8164509  25.4394402
  60.4169909  80.3836607  24.7183861  23.9263753  81.6678213   4.7957911
  24.8169692  81.3305305   4.8922743  23.9648492  82.2272037   4.0200056
  27.1389994  53.1043313  14.1173519  27.2436747  53.8596985  14.6958794
  27.8922591  52.5469086  14.3125786  28.1666407  38.0364869   4.2427649
  28.7857518  37.3065589   4.2310156  28.7101159  38.8136313   4.1127266
   8.2311099  30.7303380  47.7216387   7.7229493  30.7497739  48.5325813
   8.8295262  31.4736985  47.7961016  70.7281725   3.0722570  37.2622681
  70.8229725   2.9738664  36.3148689  71.6156570   2.9643582  37.6042676
  25.1899562  56.9207928  28.5583748  25.6055770  56.9254563  27.6961292
  24.4858727  56.2769101  28.4813942  20.9078154  31.1803649   0.6594433
  20.3329930  31.1124632  -0.1029239  20.9795222  32.1208737   0.8223356
  28.5200064   1.6074895  56.7093372  28.6359637   0.8471059  56.1396027
  28.4382193   2.3473882  56.1075974  37.1244345  14.0244340  50.0494814
  37.0648418  14.9691629  49.9074221  36.3127540  13.6752175  49.6814394
  55.5856705  45.3820658  57.9513550  55.3558588  44.7224808  58.6058521
  54.7647095  45.8421516  57.7764750  11.4006600  12.0657656  12.3759331
  12.2124705  11.6945861  12.7215161  11.5517602  13.0109618  12.3727860
  17.4571309  39.1465924   2.4072184  18.3452210  38.8527987   2.6102127
  17.5436864  39.6148560   1.5768732  49.0049267  78.8490725  56.8619156
  48.6268616  77.9699278  56.8818855  48.5882282  79.3056488  57.5927591
  37.6092625  25.6151748  66.6660452  38.5343575  25.5607247  66.9057703
  37.1611738  25.0737381  67.3158836  18.2629189  17.9311869  21.3627114
  18.4629521  18.8669655  21.3395943  17.6994643  17.8255770  22.1292652
  57.7111897   9.7441313  27.4273743  58.4962926   9.3817113  27.8378548
  57.9239926  10.6648085  27.2747196  61.5506403  46.4421414  63.7411213
  61.8654172  45.7212018  64.2864609  60.8208100  46.0680913  63.2474947
  13.9629302  22.5799678  12.5193466  14.8627934  22.2826741  12.3848404
  13.4384474  21.7800830  12.4829353  50.0338730  65.9782097   0.5526938
  49.3275008  65.6578610   1.1136212  50.4111275  66.7119095   1.0380758
  32.7630601  13.2268784   6.5851273  33.6189255  12.8842185   6.8426336
  32.4104724  13.6165164   7.3851837  32.5474017  68.5349225  32.7237286
  32.0117419  68.3648943  31.9488777  33.4494727  68.4623550  32.4119152
  20.8536992   7.5552056   4.3419232  19.9894080   7.8039668   4.6695675
  21.2794671   8.3868716   4.1338839  65.0459623  73.4839249  11.3101923
  65.7300234  73.6250448  10.6556845  64.6853733  74.3557978  11.4715850
  61.9512796  70.6215239  52.2778845  62.2028542  71.1827183  53.0113745
  62.0197010  69.7313118  52.6229572  16.3121510  70.4462051  43.3047819
  15.6318284  69.8228359  43.5593557  16.7800713  70.6354570  44.1180849
   9.8279612  27.0800065  62.4794579   9.0201562  26.7507123  62.8734732
  10.2377026  27.5991105  63.1714678  22.6266369  40.9113000  12.1637787
  23.1524834  41.6852257  12.3656811  22.1146807  41.1633942  11.3952889
   8.4727535  37.9853079  10.0141396   8.1007418  38.7478326   9.5709767
   7.8354272  37.7693436  10.6948723  51.3722500  61.6295407   2.0518650
  51.9370732  62.2080681   2.5642313  51.5899071  61.8274663   1.1409916
  17.2595296  17.4167464   2.5855030  17.3664603  17.1768687   3.5059704
  17.1855578  18.3710501   2.5937237  22.2537272  71.8078779  30.2587952
  22.8641360  72.5449489  30.2780213  21.7091792  71.9679020  29.4880261
  62.4528170  80.8266926  34.4851208  62.5952291  81.6556454  34.9420547
  62.0833206  80.2466202  35.1508737  79.7015612  15.7523488  53.3394957
  79.3204395  16.2272691  54.0780306  79.0926735  15.9047841  52.6168299
  21.9595561  39.1451523  -0.1180969  21.2161765  39.4923089   0.3749575
  22.4986443  38.7053988   0.5393471  74.0423576   1.5946340  40.5280447
  73.2576315   1.3898896  40.0196028  73.9666454   1.0532807  41.3138103
   5.4006300  33.6402438   1.2178053   5.9860596  32.9056571   1.4019026
   4.5617971  33.2307313   1.0059323  85.8861670  74.2217970  59.6241522
  85.5578586  73.8745737  60.4535389  86.0816972  73.4451151  59.0999699
  30.2169737  42.5371239   2.8008331  30.8507476  42.3750661   2.1020521
  30.5456814  43.3182118   3.2459082  54.0629530  63.3364296  63.3596182
  53.2021046  63.2062244  63.7573862  54.1953993  64.2842007  63.3801270
  37.6856494  73.8468647  41.2885857  38.0127168  74.2339849  42.1006155
  38.2677174  74.1876030  40.6093740  73.4946012  75.6055450  68.7384319
  74.1888571  76.1487675  68.3653927  73.9315653  74.7873592  68.9747858
  58.3061695  47.0842123  58.4212923  58.3903503  46.2905025  58.9496565
  57.7142334  46.8372822  57.7107477  17.3271832  43.7732384  15.2074207
  16.9320187  43.2892010  14.4823136  18.1561455  43.3237813  15.3718628
  62.6052666  36.3524485  67.5316954  62.2214460  37.2195649  67.6621771
  62.0930099  35.7759833  68.0987120  13.6803422  31.0045359  31.0558762
  14.6146426  31.2120268  31.0396065  13.6079869  30.2735398  31.6695942
  71.3659272  61.3313267   0.6689800  72.2699532  61.5636418   0.8811058
  71.1130032  60.7073949   1.3494028  20.3580945   5.3158330  67.5146532
  19.5434373   5.7916688  67.3529673  20.0753968   4.4530438  67.8178120
  72.5227690  75.4278517  61.0447741  73.3248901  75.0419569  61.3967943
  72.7428865  75.6554699  60.1414633  46.8604898  79.4938660  53.1494999
  47.6530981  80.0009918  53.3250618  47.1801424  78.6678410  52.7865410
  58.5601854  77.2163486  20.4099298  59.1613770  77.9011583  20.7029033
  59.1298389  76.4907742  20.1544428  15.5176053  16.9990609  20.5299343
  16.0616812  16.2421820  20.7475247  16.1427149  17.7084420  20.3807892
  73.4803240  14.8134851  66.3886738  73.6774389  15.3174924  65.5991459
  74.1870110  14.1703080  66.4448977  23.9685512  65.1767731  57.8656006
  24.6395588  65.7261372  58.2707977  23.9884043  64.3633461  58.3697605
  16.5001282  37.4824402  41.0238518  16.2964711  38.4150527  41.0944523
  17.4480519  37.4534390  40.8941235  30.6991410  41.3528395  44.3593836
  30.2524996  41.8471050  43.6720324  31.5669560  41.1713982  43.9985466
  12.9210934  48.9324448   5.4793276  13.6161694  48.9579747   6.1369337
  13.3232054  48.5066579   4.7222008  13.8756936  29.4937371  52.7762032
  13.9243405  29.6968698  51.8420696  13.1845896  28.8347863  52.8423500
  19.6553795  72.8285597  41.8275131  20.2273123  73.3289550  42.4095120
  20.0934737  71.9831012  41.7299904  69.0145254  57.5396204  62.1685886
  68.3931732  58.2266140  61.9273567  69.2593575  57.7442312  63.0710411
  46.2861490  79.6350431  67.1251059  47.1975565  79.6316671  66.8326092
  46.0306168  80.5572128  67.1020317  27.4831137  21.9996665  18.7283386
  27.7946648  22.7918646  19.1660370  28.2749018  21.5940402  18.3751072
  80.4004106  32.4973223   4.0984215  81.2338885  32.0468018   3.9621224
  79.8064002  31.8135760   4.4080605  12.6968035  66.6964219  10.8249153
  12.2480521  65.8576272  10.7186760  13.5315594  66.5806363  10.3710331
  49.2981228  20.0541947  12.9005303  48.5724673  20.6648801  12.7712025
  49.8175463  20.4448102  13.6032738  80.7987842  24.6601651   1.2489618
  81.6768488  24.5132277   0.8973326  80.3821763  23.7988494   1.2205567
  40.8841357  10.5536053  12.8749623  41.3969359  11.2556336  13.2754864
  41.2096200  10.5020068  11.9762768  42.9375682  37.5752471   7.4915947
  42.6565776  38.4240124   7.1497358  42.1528659  37.2099707   7.9003109
  65.6768179  64.1062498  45.3944731  65.3316450  63.3779812  44.8780251
  66.6263294  63.9873791  45.3714037  70.7220554  48.7087679  49.4324017
  71.1559010  48.0035019  48.9521837  69.9387836  48.9026117  48.9174843
  80.6653397  33.2558297  44.1133356  81.5929739  33.3873796  44.3093538
  80.4059355  34.0466737  43.6405706  36.3788828   5.2236960  10.0863995
  36.1255393   4.7005627   9.3258919  37.2502789   5.5551837   9.8695530
  53.5671329  73.9654064  57.8204966  53.3846092  74.6737576  58.4378767
  54.5033264  73.7940645  57.9225206  28.6627659  17.4216912  16.9094814
  27.9814705  17.9372857  17.3410191  28.3807072  17.3686144  15.9963288
  77.1730272   6.1859654  61.9700670  77.4669926   7.0449971  61.6669321
  77.1573154   5.6456899  61.1800814  15.6944976  49.5609353   3.0697407
  15.0917945  50.1952717   2.6816811  16.0784135  50.0209496   3.8162150
  50.1090145  76.6698265  45.4349422  49.9111462  76.5656805  46.3656569
  51.0478258  76.8547249  45.4088926   0.2757741  66.6434240  43.7926388
  -0.0177860  66.3006449  44.6367693   0.3202916  67.5908947  43.9212751
  41.6319880  68.0157254   9.7917427  41.6370186  68.3177445  10.7000317
  42.0789609  68.7091134   9.3062939  42.8730202  73.3533525  70.1282740
  42.6826000  73.5413170  69.2092323  42.6295900  74.1545439  70.5920267
  20.0316653   4.9000857   6.3611998  19.9377474   5.4875634   5.6113447
  20.0857958   5.4840634   7.1176829  58.6584902  54.1001558  63.3766317
  57.7660036  53.8980770  63.0957985  59.0226126  54.6211338  62.6609278
   2.1933493  35.0673602  16.4386715   1.5276847  34.6345542  16.9732727
   2.2309694  35.9608338  16.7800106  14.5806277  42.9434919  66.8403244
  15.2271008  42.2976017  66.5554905  15.0119913  43.4163189  67.5520754
  14.1321549  18.8182042   3.2600464  14.2903409  18.0450080   3.8016905
  15.0064501  19.1462062   3.0496706  40.6434514  -0.2496126  35.2012600
  40.4762627   0.5731413  34.7415222  41.5889145  -0.2526549  35.3506531
  62.7365756  41.2041447   8.8962425  62.7328962  42.0812771   9.2794766
  62.7487489  41.3557313   7.9511990  57.0684767  72.3723650  69.7414684
  56.1681509  72.5225496  69.4532204  56.9855452  71.7743826  70.4842806
  52.9154301  50.6885433  60.4181528  52.0180321  50.4510593  60.1846743
  53.0263853  50.3581810  61.3096571  45.7063866  57.6921749  53.5132837
  46.3196659  58.4185123  53.6253166  45.8206415  57.4205303  52.6025772
  19.2278895  41.2331460  46.6169609  18.8833365  41.8514989  45.9726204
  18.4884629  41.0563824  47.1985401  15.9393248  73.4188340  13.1977238
  16.7355141  73.0152867  12.8520836  15.3547940  73.4807370  12.4422611
  58.2424021  69.5209932  54.4840050  58.3679485  68.6953402  54.9517250
  59.0974426  69.9496698  54.5210600  59.6810214   8.1677293  70.0847054
  59.3041269   7.8439378  69.2665768  59.9301474   9.0717172  69.8923922
  43.2752499   0.7713578  23.3221687  42.5205645   1.3593695  23.2917751
  43.0279622   0.0351594  22.7626194   9.3857107  47.9306481  10.0317635
   9.0711221  47.0286248   9.9716343   8.8700876  48.4079716   9.3817391
  38.3741364  57.3934338   9.1874565  37.7830824  58.1463406   9.1903271
  38.1473956  56.9079087   9.9806084  57.3267937  70.6012106  57.5263309
  56.8902588  70.3697538  58.3461475  57.0303249  69.9390936  56.9018793
  42.4074125  81.6154861  65.0412798  43.1281042  82.1220684  64.6668339
  42.6745033  80.7027340  64.9327612  31.6805792  79.2507696  67.5490904
  31.1803651  79.9387217  67.9881096  32.2571397  79.7210360  66.9468832
  70.5086001  39.2738507   8.3383335  71.0381183  39.6780656   9.0256848
  70.3331229  39.9847958   7.7218880  23.7110886  19.8775218   7.0327009
  23.9415822  18.9551613   7.1438612  22.7839646  19.9225686   7.2664560
  36.4079508  29.2568848  17.7993263  35.9858498  29.1822693  18.6551823
  37.0868287  28.5821364  17.8074421  31.3289675  55.2799866   3.1956257
  31.1521372  54.3396638   3.1681551  32.2792658  55.3422711   3.2919707
  82.6446375   8.8242695   0.4952587  81.7456254   9.1521189   0.4723181
  82.7727899   8.5397170   1.4001574  27.9282546  76.0637569  49.1680622
  28.3657503  75.2152634  49.2379618  28.4914517  76.5765953  48.5883760
  69.4440882  36.4476441  39.0259433  68.6257021  36.4668798  39.5220351
  69.2536537  35.8904981  38.2712579  35.4745173  77.4101210  61.4414406
  36.2981796  77.0902777  61.0733223  35.1702762  78.0657244  60.8138609
  25.1663193  21.9681904   4.7933306  25.7333455  21.2662766   5.1127447
  24.2890105  21.7179415   5.0830568   0.9023080  27.0836232  17.1293034
   0.0501761  27.1284554  16.6956009   0.7350192  26.5967629  17.9362835
  33.0047927  52.2283242  21.6374172  32.8188691  51.3908551  22.0620598
  33.1386885  52.0052788  20.7162537  75.9253141  47.7726433  47.7418675
  76.7991802  47.3953126  47.8429093  76.0761615  48.7166474  47.6935925
  51.6588259  55.1670933  52.7481174  51.2216425  54.3362236  52.5616646
  52.3952150  54.9291325  53.3114481   0.1692296  70.8288622  69.8377895
   1.0242940  71.2582350  69.8106718  -0.4464149  71.5336323  70.0390625
  42.1176371  45.1493237   7.5567068  42.0036826  45.9497712   7.0443358
  41.6171393  44.4868062   7.0804657   7.0031827  23.7947320  62.1270323
   6.6225712  23.9049291  61.2556982   7.0339577  24.6804380  62.4887180
   9.9315636   5.4877137  15.3269696   9.3082707   4.7617482  15.3001845
  10.4811280   5.3035688  16.0887432  68.8399713  12.1047734  69.3439102
  69.2029039  12.0155858  68.4626865  68.8499276  13.0468988  69.5128155
  70.4727221  73.2373285  23.5538554  70.1447916  72.5022650  23.0358052
  69.6861315  73.7165070  23.8144183  24.9393019  36.0124276  13.8937534
  25.4756436  36.3494179  14.6113934  24.1356644  35.7101367  14.3168606
  59.5364651   6.4270756  19.2992081  58.6680016   6.8134091  19.1862740
  59.8997483   6.8738148  20.0638546  65.6246821  30.5813264  57.9302073
  66.2506310  29.9644803  57.5508451  65.5280201  31.2635373  57.2657681
  70.6080811  11.7829179  63.2428408  70.5707066  11.0040616  63.7980080
  71.5271990  11.8484448  62.9836893  77.5097593  26.4495299   9.4838013
  77.4364885  27.3994420   9.5761837  76.9558450  26.0976813  10.1806606
  77.4342808  10.6213973   2.2890104  76.9291409  10.0967620   2.9101528
  77.0898065  10.3740714   1.4308752  16.6560254  53.9158890  11.3281120
  16.1671052  54.2336342  12.0872082  17.3228774  54.5853684  11.1753716
  41.5303788  14.2085860  12.1279015  41.6215548  15.0372241  11.6575016
  40.6274352  13.9373610  11.9624867  53.5642862  70.4110050  49.1953087
  52.8172731  69.8188305  49.1085005  53.8074780  70.3559065  50.1194572
  26.2923178  35.5834124   7.9991926  26.4419064  36.3755868   8.5152449
  27.1068892  35.4571698   7.5125994  26.3414797  56.7144082  13.1783356
  26.1222968  56.9635270  14.0761723  26.4951310  57.5459263  12.7297749
   0.7326946  16.0692046   3.5638060   0.9170375  16.9962285   3.4125580
   1.4072690  15.6066296   3.0666079   8.9615441  49.5025063  55.5586386
   9.6900750  48.8915157  55.6689072   8.8402653  49.5621157  54.6110249
  35.2094126  41.1869335  68.9901924  35.4536366  42.0310211  68.6105919
  34.2582822  41.2340355  69.0869570  71.6296808  10.5669736  28.6958742
  71.6484062   9.8019170  29.2708325  71.4872543  11.3068437  29.2862511
  63.9742152  70.1722692  41.7459454  63.5792224  69.3004774  41.7322792
  63.3777158  70.7136201  41.2288822  41.3455519  21.0312293   3.5257496
  41.0985741  21.9231961   3.7699474  41.6550812  20.6366894   4.3410792
  37.1076345  57.1952534  68.4046936  36.7721343  56.3157082  68.2312870
  38.0268264  57.0599031  68.6349010  44.4642195  38.5915206  11.9227757
  44.6498522  38.3894131  11.0057511  44.6813187  39.5194695  12.0122112
  39.8123837  73.1463337  59.0936136  40.5415869  73.0228662  58.4859514
  39.2509890  73.7929201  58.6658335  56.4911318  63.6769533  55.7326651
  56.7342901  63.0920887  55.0150013  55.5514860  63.5360336  55.8485937
  25.4839563  17.0811486  51.6456413  25.9275293  16.7755556  52.4369001
  26.0290813  17.8011608  51.3283825  25.4043564  37.3302386  18.3264317
  24.9149260  36.5336297  18.5316147  24.7358975  37.9581282  18.0522980
  51.9018793  32.9649234  54.0848255  51.4651203  32.5858927  54.8475885
  51.6374016  32.4052596  53.3547115  42.5486693   5.4358790  14.8785652
  41.6164574   5.5237601  14.6798386  42.8320346   4.6776412  14.3676724
  18.7644944  80.2166531   6.3125290  18.1866059  79.9030469   7.0081772
  18.6148963  79.6116994   5.5859722  14.8570952  31.4508460   2.7480044
  14.9434170  30.6246874   2.2723498  15.0909791  31.2332795   3.6503328
  78.6614601  39.1409253  45.4934883  79.1580288  39.1115331  44.6756935
  78.9468472  39.9499654  45.9180355  37.9625210  31.7059300   1.8206181
  37.4707160  31.0411809   2.3027672  37.7696356  31.5261147   0.9004559
  79.6151241  57.9923413  12.0231594  79.5069298  58.6338112  11.3209976
  80.5586466  57.8356240  12.0611061   6.7826653  73.0532217  48.9455462
   7.5882531  72.6071453  48.6842442   6.7021084  73.7820768  48.3303070
  78.7132835  29.7395921  49.3151426  78.7988710  29.9850583  50.2363682
  77.7859306  29.8706937  49.1175032  44.8536484  78.9643620  39.0432419
  44.1093962  78.9451717  39.6448673  44.5365147  78.5221909  38.2557549
  28.8363695  49.2342901  68.4782028  28.9776611  50.0933743  68.8759947
  29.5579052  48.6971903  68.8055325  78.1533718  55.6596231  48.2899523
  78.0013990  56.6046810  48.2923365  77.5269365  55.3146935  48.9262199
  63.2105844  24.7862767  65.1423550  62.5905053  24.9311303  64.4276857
  63.0284659  25.4909944  65.7639980  43.3649573  76.4109872  20.9214081
  43.2660184  76.4554379  19.9703659  43.8364205  75.5922578  21.0751595
  48.7258706  23.4220288  10.2705921  49.0901932  23.0981991   9.4467987
  49.4363007  23.9288638  10.6638397  81.9451944  14.0588140  39.0504909
  81.6936056  13.1447934  38.9182353  81.1813824  14.4598817  39.4651794
  21.0202250  37.0636103  16.6872276  20.9956870  37.0644162  17.6441158
  20.2657399  36.5343068  16.4287342  37.8734088  78.4761000  59.8858595
  38.0922747  77.9104233  60.6263590  38.7062836  78.8759756  59.6355629
  29.2069857   9.4149732  61.9696617  29.1513865  10.2835511  61.5712690
  28.4450476   9.3670892  62.5470638   8.7569993  19.3573999  52.7366209
   7.9262011  19.6747636  53.0905867   8.6344855  19.3729638  51.7874193
  28.7105021  30.1570676  15.8209480  27.9418120  30.6722615  15.5761494
  28.6604581  30.0904915  16.7745175  59.4961493  27.2844171  20.7028031
  58.6825172  26.7839192  20.7639718  60.0047342  27.0089101  21.4654756
  70.1924984   2.3050927  34.3958282  70.9614174   1.9204759  33.9750266
  69.4802658   1.6983651  34.1937470   0.1581996  51.2255048  60.8212900
   0.6388085  51.1990880  61.6486597  -0.7561452  51.0920190  61.0710621
  26.2960951  27.8343152  31.4306998  26.2171405  26.8837403  31.5108109
  25.6230872  28.0778264  30.7950974  54.7458920  37.1233008  19.5986714
  53.9485821  37.0954583  20.1275887  55.3869519  37.5658963  20.1548924
  51.5563656   6.3227197  16.0218777  52.1903445   6.0399458  16.6809239
  51.3975503   5.5417558  15.4916920  32.8287062  46.7705605   8.3768477
  32.4058327  45.9154198   8.4551825  32.4890742  47.2743676   9.1164841
  69.8399631  14.0676450  37.2941351  69.4320671  13.7524938  38.1006908
  69.8884289  15.0171231  37.4054003  53.4322500  73.6680269  62.9562187
  53.2068729  73.9206743  63.8515425  52.7179670  74.0157270  62.4222326
  37.5222819   9.2116975  57.3106003  37.3024027   9.3244027  58.2353592
  36.9649546   8.4905576  57.0180607  50.4333672  52.5851414  10.2656426
  49.5200762  52.4371503  10.0202145  50.8489165  51.7281506  10.1701893
  79.0843479  14.4540452  57.9995441  78.2464401  14.1476773  57.6527309
  79.2197315  15.3047036  57.5820589  75.7308475   6.0769033  41.6182566
  75.8086864   5.1486348  41.8384886  75.5546896   6.0858964  40.6774473
  19.7116041  73.8312817  63.8737726  20.4612851  74.4239283  63.9283609
  19.3018460  73.8832283  64.7372723  42.3062325  73.5996962  57.6499081
  43.1979752  73.7308359  57.9721355  42.0878410  74.4205952  57.2087049
   3.0795281   1.8958329  70.3812456   2.4207871   1.2510633  70.1232290
   3.3169882   2.3355054  69.5648336   5.6914712  79.1927481  47.1027470
   6.3588906  78.6928701  46.6327381   4.8906232  78.6785936  47.0001364
  41.0875361  30.7914971  60.2225208  41.7577975  31.3395928  60.6306505
  40.9183448  30.1020192  60.8645678   4.4958577  34.6377680  15.0833286
   5.0192222  35.4179356  15.2667965   3.6758217  34.7830460  15.5552067
  34.9530778  31.1709283  31.0810818  34.9216399  31.1379073  30.1249661
  34.9377522  30.2533076  31.3530602  13.9317641  28.7998507   4.0892758
  14.4178948  28.0660317   4.4653334  13.4205708  29.1479991   4.8198284
  67.4206945  37.4507973  16.9063248  68.2624814  37.3715851  17.3550476
  67.1081021  38.3258031  17.1362843  68.1161294  34.2700551  23.9146866
  67.9840741  35.1679490  23.6104073  67.2326169  33.9084265  23.9844383
  68.5823437  48.3170769  14.8448528  68.7448689  48.4873936  13.9170517
  69.1044530  48.9748452  15.3041615  42.4433169  10.6985448  22.7850403
  42.9164443   9.8703692  22.8657307  42.3059306  10.9848616  23.6880268
  64.9897385  76.1943340  35.6385517  64.8440790  75.2563000  35.7614660
  64.1239882  76.5875673  35.7484412   2.2636740  16.1996602  48.9051723
   2.0171349  16.7997693  49.6089602   2.5290530  16.7714356  48.1848383
  34.5881033  58.2501793  69.2920017  35.4223633  58.6317444  69.0187788
  33.9779353  58.4821129  68.5919046  53.1954615   2.8443669  44.0192366
  53.8771169   3.3149194  44.4989824  52.4256913   3.4100198  44.0802860
  23.0655799  63.2571194   4.7199692  23.2257352  63.8560269   3.9906611
  22.4449477  63.7228177   5.2804722  17.0293841  13.0882857  44.1005768
  17.0946917  12.1419690  44.2288460  17.9043707  13.4185670  44.3043961
  49.7968721  65.6699896  39.2212772  49.3444252  66.5116167  39.2777634
  50.2441931  65.5815792  40.0628948  10.0082438   5.1714658  57.9205132
  10.5064671   5.3924130  58.7073946   9.7568314   6.0177945  57.5507069
  81.8791430  22.4493550  55.2988434  81.4958374  22.9687356  54.5920610
  82.5662224  23.0084943  55.6614876  65.5189276  46.7289305  64.1479969
  64.9935770  47.5214243  64.0375853  65.0076818  46.1840868  64.7463274
  45.3833661   6.2215588  12.4718060  45.2747759   5.3011964  12.2322907
  46.3267455   6.3738129  12.4162163  53.6937794  21.6943953   0.9319891
  52.8690037  21.3865254   0.5562367  54.3704590  21.2592862   0.4133238
  75.2047968  57.7586746  64.5498753  74.5808125  58.3571434  64.9606133
  74.9896908  56.9005203  64.9152994  67.8429901   2.1986657  51.4813042
  67.9155039   2.5090232  52.3838854  68.1976079   2.9137197  50.9529352
   5.5657279  11.6671741  42.1103477   6.0687327  10.9394968  41.7446947
   6.2116230  12.1899486  42.5854921  81.7508408  33.4133482  49.6112490
  82.0876943  32.5384593  49.8044634  81.6570544  33.4289360  48.6587811
   1.0391361  41.8598843  70.2069044   0.5081988  42.1155500  69.4526005
   1.9166857  42.1830463  70.0026894  86.1561520  77.3225124  66.5780067
  86.0303862  77.0823855  65.6599903  86.4049108  76.5041614  67.0077229
  40.9401922  65.1655577   0.4690804  41.3416736  65.7563423   1.1062779
  40.0027506  65.2119707   0.6569113  83.4058621  11.6062915  54.4496298
  83.1988838  10.7932472  53.9888144  82.5530964  11.9728875  54.6833563
  83.3972784   0.9161348  23.7724614  83.9861732   0.2144790  23.4947681
  83.4622639   1.5721047  23.0784082   4.6493402  10.1096940  31.0117936
   5.0531763  10.7545030  31.5926290   3.8495034  10.5343735  30.7017303
  70.6759424  56.7763377  36.6313624  71.5041728  56.3780189  36.8989611
  70.7170005  57.6685501  36.9756007  44.4037346  42.2799587   8.9140000
  44.6457736  42.0700292   9.8159851  45.1401274  41.9660893   8.3891739
  10.5855020  64.6249104  16.1372006  11.2492855  64.8868359  16.7751789
  10.8161147  65.1039518  15.3412294   7.1122050  25.9599257  63.5511065
   6.2677014  26.1338091  63.9668131   7.7539343  26.3673019  64.1328812
  14.8233485   3.3426189  49.2108202  14.7657228   2.3906118  49.1296196
  15.1156282   3.4890094  50.1104736  64.1664530  74.2698664  62.3991299
  64.3166370  74.3942423  63.3362532  63.2494695  74.0024615  62.3369312
  47.1839110  62.5110434   7.8523411  47.7033321  61.9615244   8.4392513
  46.2842350  62.2076582   7.9738869  15.8781815  16.1110878  46.0829306
  16.5146863  15.5202019  45.6805086  15.9449327  15.9321856  47.0208931
  56.6010761   2.2262652  68.9090633  56.4731455   1.7636834  68.0808830
  56.9074202   1.5518136  69.5152855  28.0282879  50.8725786  45.4510069
  27.9176235  50.5065346  44.5735121  28.0061293  51.8204689  45.3196621
  16.7320549   7.6502204  54.0677977  17.3017800   7.9986310  54.7535515
  15.9421003   8.1886041  54.1162395  21.5908106  77.3339302  54.1413879
  21.8781527  76.9058377  54.9478626  21.6788824  76.6595925  53.4677792
  31.2741089   5.5934685  51.7526770  30.5200839   6.1707079  51.6323614
  31.7697525   5.6738853  50.9377527  53.9368693  72.6562546   1.4888586
  54.4564836  72.1238779   2.0911946  53.3300464  72.0365237   1.0839762
   8.3954978  20.5101562  36.0505271   8.3985060  20.2899122  36.9820404
   9.1536421  21.0834599  35.9375143   1.5979943   0.3134225  24.9535813
   0.6503853   0.4104207  24.8594345   1.7584428   0.4266141  25.8904232
  26.5097189  38.1304955  45.6662560  27.1702695  37.7456856  46.2423038
  26.9706583  38.8344669  45.2099752  11.6450270  70.1140095  64.2506552
  10.9680946  69.4983269  64.5315981  12.3185785  69.5635475  63.8512087
   9.1450409  56.5784679   0.2483477   8.2494084  56.7868458  -0.0174557
   9.3491940  55.7656978  -0.2142082  83.0701644  80.6123548  46.9246101
  82.5833518  81.2235944  47.4774504  82.4404700  79.9212103  46.7195797
  67.4946825  36.7073171  23.6002125  66.9689672  37.0913927  24.3018879
  67.1125810  37.0575355  22.7954926  85.2138773   7.4000555  22.0081806
  84.2790150   7.5985694  21.9547319  85.5885477   7.7980387  21.2223935
  40.3504848  25.1492572  67.2620296  41.2370777  24.8633242  67.0419836
  39.8457742  24.3383026  67.3241234  18.3849323   7.0264131  43.4152794
  17.6283503   7.0529854  44.0010357  18.2119036   6.2858760  42.8339911
  27.9483867   4.1180849  61.3711882  28.6030269   4.6691477  61.8001509
  28.4341764   3.6575654  60.6869650  31.4241076  33.8248682  45.7816792
  31.6665840  34.6002674  45.2755260  31.4376473  33.1097364  45.1455688
  22.0660019   9.2335641  41.6502476  21.6506600   8.6835027  42.3144436
  21.4549446   9.9594647  41.5241289  13.4729441  72.3861040  28.6941051
  13.5995586  71.6634358  29.3088818  14.0911825  72.2086132  27.9852247
  45.9848670  71.5461896  17.5088658  45.6712393  72.4343608  17.6792206
  45.4843299  70.9957932  18.1111588  74.3395717  77.2713698  57.5505781
  73.9081473  78.1130190  57.6979971  73.9734633  76.9560380  56.7242813
  25.3429365   2.2331946  56.8152475  25.8585310   3.0319992  56.9261694
  24.5517015   2.5202012  56.3593864  39.0027337  28.3732663  18.1824936
  39.8117225  28.7113248  17.7984585  39.0564267  27.4256610  18.0584301
  55.6763081  68.2541455  53.5662746  56.3457425  68.9364494  53.6167765
  55.2621330  68.2606257  54.4292068  80.6095266   7.1581095  27.3364043
  80.0752377   6.4109099  27.6055884  80.9237056   6.9255114  26.4626646
  42.1169758   8.8947564  57.8900623  43.0617952   8.9171106  58.0418777
  42.0137358   9.1762096  56.9810200   4.2525323  66.4321662  56.6710997
   4.0933593  66.0809565  55.7950020   3.5106500  67.0146454  56.8340683
  13.1911810  44.3540288  45.6768894  13.9047630  43.9512754  45.1820993
  13.1980999  45.2713419  45.4035425   5.1590340  72.1559499   3.7548746
   5.1556103  72.9226469   4.3279328   5.4993909  72.4813388   2.9215016
  85.9942629  31.2665629   8.6895746  86.7463911  31.7901015   8.9660555
  86.3514971  30.6559801   8.0447447  25.5013180  27.7828169  50.2755213
  25.5751610  28.4661818  49.6093464  26.2220788  27.1827650  50.0840235
  70.6592853  74.1016431  34.8853183  70.2267427  73.5648067  35.5493569
  71.4620430  74.4057322  35.3088069  47.3264102  70.5903934   3.7545075
  46.7686967  71.1464761   3.2104839  48.2191329  70.8419345   3.5178532
  47.4905777  15.1447213  47.1999836  46.9120169  14.6709430  46.6024590
  48.3735371  14.9026859  46.9206476  61.4705790  63.7919916  41.6422081
  61.6060911  63.3466459  40.8058262  62.0275075  64.5689262  41.5928602
  78.1510360  51.3959766  53.9960003  78.3011229  51.2219573  54.9252081
  77.6859708  52.2324706  53.9810467  40.3638525  79.4623124  68.2122326
  40.1440401  78.8260169  68.8927031  41.3170380  79.4147187  68.1387186
   9.3330616  16.2351573  58.4137440  10.1901388  16.0535669  58.0281591
   8.8082504  15.4621255  58.2058334  58.5303752  21.3702463   3.0397858
  58.6153428  21.0724913   2.1340527  58.7043278  22.3106693   3.0000700
  63.9004053  71.0677994  62.5285864  63.4307207  71.1243750  63.3607101
  63.3893980  70.4491402  62.0067024  58.7307326  45.7278319   3.4685387
  58.5820620  45.6166576   4.4075598  58.1231586  46.4209215   3.2102503
  58.3234541  37.1854349   9.3958821  58.8952152  37.7049188   8.8306774
  58.7429611  36.3259940   9.4359650  50.5806200  57.3061906  14.3567623
  51.4520471  57.6084267  14.6126904  50.7010858  56.9434248  13.4792008
  36.8285108  27.4277401  63.8304186  36.3536644  27.6788068  64.6227074
  36.6647148  26.4889669  63.7403727  23.5571361  11.2732351  61.9961739
  23.2460833  10.4641712  62.4022436  23.8686705  11.8045723  62.7288771
  64.0617155  24.8283291  67.8248024  64.0031695  24.4243026  66.9590282
  63.9780616  24.0969229  68.4365845  78.4068949  62.9435492  66.6404819
  78.5489662  62.4398697  65.8390093  78.8322694  63.7846006  66.4733791
  76.3156290  79.3743166  39.4846892  77.0818574  78.8396395  39.6926475
  75.5832596  78.9121679  39.8924708   0.7328689  50.5652618  56.8021584
   1.4168659  51.1377668  57.1494627   0.7243293  49.8146868  57.3961258
  72.6770813  72.6987619  60.0851107  72.9080469  73.5968221  59.8476791
  73.3383961  72.4434544  60.7283163   6.9089991  28.8466763  46.1646414
   6.2773991  29.4597936  45.7886076   7.4758172  29.3915153  46.7106247
  42.0340684  41.5749728  67.9685448  42.2618606  41.4100955  67.0535813
  41.5927461  42.4242749  67.9561950  13.5091531  15.5975306  44.8476744
  14.2394686  15.8680379  45.4041767  13.0657089  16.4148021  44.6203899
  77.1953399  53.8468028  46.1881733  77.5587709  54.5233131  46.7595577
  77.1994264  54.2420340  45.3163910  21.6986012  43.0848169  59.0365744
  21.1081195  42.4850941  58.5806227  21.4762735  42.9824543  59.9619532
  37.4379842  50.0221490  26.5592350  37.7975957  50.9070240  26.6217484
  36.6118531  50.0647752  27.0408119  44.8345606  63.0969928   4.8703159
  45.3637175  63.7283109   5.3578247  45.3988080  62.8176592   4.1493239
  67.5641925  66.8579746  56.8040752  67.1148295  67.6078535  57.1939278
  67.4639125  66.9827820  55.8603573  86.2183196  19.5032382  21.1338043
  86.6810476  18.9127433  20.5393052  86.5103135  19.2412615  22.0069265
  40.8204739  14.2776202  30.0810780  39.9620478  14.6815036  30.2084126
  41.3008706  14.9023293  29.5377602  23.0290604  23.1436706  47.0730686
  23.4532905  23.7394333  46.4555502  22.3756289  23.6842465  47.5169563
  49.9892704  21.8578445  23.9058651  49.8175733  21.9245099  24.8451771
  49.5477168  21.0518287  23.6382832  83.6493142  70.4588903  41.9050789
  84.3513186  69.8569418  42.1522236  83.3036477  70.7787705  42.7383995
  76.8661451  15.6469059  40.7851124  75.9176444  15.5473387  40.8667517
  77.0202684  16.5833724  40.9096479  32.3610330   2.2326359  54.9878216
  31.8132257   1.5833190  55.4288721  33.2484889   2.0443901  55.2931404
  67.9478068  47.5766254  44.7551250  68.4145791  47.9397131  44.0024471
  68.5537917  47.6854945  45.4880381  38.1908886  38.2678135   7.4119724
  39.0510444  38.3178948   6.9950117  37.6668082  38.9291708   6.9601120
  32.2420454  41.7416382  48.2321072  32.8464079  42.3141146  48.7046003
  32.7832890  41.3213778  47.5637770  27.6862713  53.8778053  24.3215050
  26.8086986  54.0317379  24.6713700  27.8998878  52.9856037  24.5945992
  43.9271526  21.7982017   2.6595987  43.8002591  22.7141152   2.4121441
  43.0478994  21.4823555   2.8678955  26.3507318   6.0446244  60.1630354
  26.8914461   6.7501920  59.8080206  26.9489241   5.5373544  60.7117367
  33.4576305   3.8027976   0.1353230  32.8314623   3.3237383  -0.4074941
  34.1387996   3.1615327   0.3378548  79.6017432  21.1133552  70.1030779
  79.5170569  20.2026534  69.8207998  80.4965287  21.3557744  69.8647022
  61.9476382  40.9278608  20.6524338  62.7248947  41.2463490  20.1934494
  62.2149436  40.0854585  21.0200466  43.1950681  48.6903928  11.7559399
  42.7023332  48.2877980  12.4710430  42.6704435  48.5145711  10.9748615
  43.7742662  27.2498298  42.2161341  44.3915987  26.7633820  41.6697788
  44.3280458  27.7728677  42.7957821  76.1453235  52.1985435  35.1655841
  76.7715322  51.4769173  35.2234864  75.9948968  52.4586296  36.0744047
  30.4944754  28.4688067  34.3691373  30.4144907  27.5588584  34.0830803
  30.0430655  28.9731956  33.6923409  20.6366825  22.9200888  56.6139793
  20.7992458  23.1552267  57.5274944  19.8260677  23.3770466  56.3896465
  34.2437315  17.3566663  16.8593824  34.7094536  17.9000413  16.2237120
  33.4040737  17.1654963  16.4414549  45.3040457  13.6155713  25.0482440
  44.8112106  14.1709030  24.4441319  45.7695293  12.9999316  24.4820762
  35.6077671   7.2741532  50.6417656  35.3143811   6.5703648  51.2204218
  36.0855722   7.8727591  51.2158775  85.4082645   4.5484024  47.7511549
  84.4817596   4.7514090  47.8800297  85.4508069   3.5926959  47.7835131
  23.3677606  59.6646665  11.7040791  24.1559671  59.6610974  11.1609902
  22.9269384  58.8419496  11.4918484  27.1226931  22.9302311  52.9933167
  26.5540814  22.1631956  52.9257154  27.4302268  22.9212618  53.8997221
   6.2999503  38.1613208   8.1012787   7.0748894  38.6070822   7.7592291
   5.9311001  37.7069996   7.3437990  86.2545308   6.4285538   8.1499209
  85.8661779   5.8726571   7.4743523  85.5397018   7.0003913   8.4296621
  38.8938080  49.4682966   6.1302103  38.4723531  48.6422233   5.8931221
  38.2303850  49.9396818   6.6340937  11.3787162  23.9036441  22.5086737
  10.9242940  23.2122278  22.9899979  11.0295749  24.7175360  22.8718758
  10.2740248  77.1841944  52.6974058  10.3035434  77.3638795  53.6371279
  11.0586031  76.6625095  52.5285482  85.6807787  76.0024566  40.0391626
  85.8281929  76.6096378  40.7643080  84.7314842  75.8816839  40.0171137
  56.3734281  66.9707526  31.5160775  56.4601667  66.0265721  31.3848114
  56.1548736  67.3139454  30.6496572  85.8701618  79.3907803  10.7329178
  85.0621564  78.8830359  10.8074391  86.5430362  78.7414823  10.5282640
   5.0299942  18.6775494  37.5240922   5.5553758  18.9457488  38.2779312
   5.3601331  17.8076398  37.2993755  84.2349942  78.9778287  55.0430489
  84.5200498  78.1929905  55.5110264  83.3723266  78.7499652  54.6964741
  71.7308609  70.7919048   6.0422148  72.0550005  69.9288486   5.7847370
  70.7830517  70.7380961   5.9197821  39.9998593  22.8703666  50.1227808
  39.9199414  22.0109034  49.7090626  40.8886194  23.1561875  49.9114895
  12.0104551  24.0597892  55.7269669  11.4664221  23.6962295  55.0283384
  12.4199355  24.8310494  55.3349018  31.4651489   1.7339987  38.8773108
  31.0443211   2.2771004  39.5437765  30.8155918   1.6674426  38.1773996
  69.3751215   7.9730624  14.9225307  68.4459423   8.1585568  14.7867024
  69.8295760   8.6088854  14.3698716   6.4603478   5.5439419  57.0367050
   5.5804884   5.1821077  56.9310856   7.0003670   5.0427818  56.4256001
  43.9277887  35.8786869  59.1082859  44.8383522  36.0342479  58.8574696
  43.9805794  35.2349663  59.8147345   6.6196221   3.3439374  49.0293455
   5.7771230   3.5206914  49.4478941   6.7641908   4.0959308  48.4550285
  60.3388326  61.1946319  12.0284905  60.3264372  61.8415259  12.7338947
  60.2106921  61.7077612  11.2306751  23.6710024  15.6008816  60.3270626
  23.6362791  16.5049362  60.6396484  22.9842925  15.1507914  60.8190775
  26.4544733  68.9312161  24.6244955  25.7448061  69.3962730  25.0675774
  27.1914347  68.9829529  25.2331352  69.1247105   0.5966389  66.8763971
  69.7398590   0.2200666  67.5056982  69.6582722   0.7881426  66.1051178
  25.3067271  56.1424016   1.3073076  25.0979821  56.1928068   2.2401108
  24.5795785  55.6508647   0.9253706  17.3149828  57.4205838  10.0567211
  17.8876786  57.5691639  10.8091702  17.7739350  57.8281699   9.3222393
  26.6321516   7.4546170  44.4806004  25.8183169   7.1628201  44.0698004
  26.7622614   6.8494880  45.2107525  55.2904267  63.6087538  45.4604483
  55.9158058  63.2810296  44.8141289  55.7841646  64.2550326  45.9652042
  55.6841993  37.8149939  49.4032145  55.4998540  38.4180164  50.1233625
  54.8268580  37.6312923  49.0192223  73.2982428  59.8704840  18.3986068
  72.5611682  60.4583860  18.2333040  74.0697772  60.3757859  18.1424129
  30.1273386  24.3752335  14.8165383  30.8274656  24.2164563  14.1834129
  29.6865734  23.5299848  14.9032082  39.3957766  68.4128047  23.7208939
  39.9364813  67.6858676  23.4119725  38.7126406  67.9966498  24.2466021
   6.2295675  14.5675945  48.1027746   5.6069839  14.0665066  47.5759602
   7.0468658  14.5321631  47.6057816  77.2253458  54.4376861   0.5862345
  77.9205267  53.7862037   0.4938950  77.6840870  55.2777444   0.5958046
  40.8595848  13.7850559  32.9358697  40.4927921  13.6408007  32.0635819
  40.0990677  13.7938023  33.5170460   6.8411835  37.0079804  35.9157658
   6.6049560  36.0951091  36.0803938   7.5890310  36.9582272  35.3203845
   4.9570301  29.4863534  67.0633650   5.0661749  30.3436375  66.6518021
   4.0188843  29.4246578  67.2431087  44.6991539  15.8585393  39.5945811
  43.9472771  15.5699420  40.1119089  45.0825596  16.5709877  40.1061010
   2.1893510   1.1315510  15.8719505   2.0119128   1.7859194  15.1962628
   2.6655945   0.4383681  15.4148735  85.1740067  69.6097444   4.4541897
  85.1974527  68.6553024   4.3854870  85.2774851  69.9173115   3.5536780
  61.3696758  49.5586525  11.1138119  60.7765500  48.9983867  11.6143479
  61.9126980  49.9851976  11.7767014   1.3401065   2.3570750   3.4922661
   0.6492362   2.4023602   4.1532339   1.0323724   1.6991589   2.8688254
  29.0533519  63.5247135  34.4162512  29.2392635  64.3688345  34.0049958
  29.3309951  62.8765774  33.7688994  17.6359403  17.1071434  37.1111369
  17.5554860  16.5893030  36.3101387  18.0264974  17.9326713  36.8244290
  27.8758383   9.9441212  67.7064514  27.7027345   9.6157658  68.5887480
  27.5618267  10.8482242  67.7214670  83.1350186  27.1669030  42.6375628
  82.6853433  27.5116682  43.4090281  83.2031828  26.2261462  42.8005362
   9.7739989   8.2470340  39.4579911  10.2457595   7.4792492  39.7807598
   9.4884104   8.0003524  38.5783219  18.3992052  31.6389132  45.4739141
  18.4074354  31.6275811  46.4310074  19.2782879  31.9288731  45.2302504
  39.1145706  38.7244558  51.3549900  38.3441472  39.1737032  51.7026377
  39.0338731  38.8107991  50.4051161  82.1014554  72.1923394  43.7714338
  81.8504770  72.9696066  44.2705297  82.4466045  71.5872754  44.4279385
  37.1961808  40.8976889  45.6401920  36.4738870  40.8601332  46.2671804
  37.9648137  41.1032963  46.1723232  80.0364883  55.0554419  28.8551402
  79.9314697  55.7510591  29.5042300  80.9059746  55.2039743  28.4834361
  44.0631859  50.3962807  15.6543698  44.4480459  49.9001561  14.9318947
  43.7197403  51.1898314  15.2438130   1.5716894  53.9247561  62.5151205
   1.7627533  53.0438496  62.1930552   0.6291063  54.0283061  62.3845577
   9.0037733   3.0633441  38.0841351   8.3215666   2.7706212  37.4798679
   9.7394776   2.4738148  37.9185247  49.4976759  14.9863422  34.0869379
  49.8213768  15.2078736  33.2137966  49.3974733  15.8306777  34.5265818
  43.4491110   9.6532172  65.8935785  43.2686520  10.5482936  66.1808157
  44.3604469   9.6745157  65.6016064  12.6901662  17.7914476  43.6010218
  12.0872760  18.2580829  44.1798210  13.2714987  18.4720266  43.2617617
  71.8716044  72.1963156  69.0538883  72.2737343  71.5521432  69.6366119
  72.5470121  72.3843122  68.4021854  61.6339819  78.3896755  10.0217022
  62.5800864  78.3455347  10.1601566  61.4114182  79.3072198  10.1792206
  77.2866558  56.2410641  53.9924097  77.2429185  56.5795898  54.8866796
  77.0911365  56.9979095  53.4399748  67.8129199   9.2034981   2.3961224
  68.5867270   8.7581513   2.0509876  68.0004760   9.3226264   3.3271803
   5.3191787  31.7006588  62.7304173   5.6981409  31.3024879  61.9467831
   5.2093637  32.6234484  62.5009918  33.6272168  38.7091231  66.1080503
  33.3291888  38.6546040  67.0160341  32.9570508  39.2311621  65.6669331
  85.9785619  20.8969235  37.2146344  85.1867441  20.3596163  37.1909976
  86.2161480  20.9327221  38.1411886  18.1279433  18.7177074  45.1087761
  17.5763404  19.4206369  44.7654724  18.8704586  18.6797845  44.5058918
  79.2191278  27.9373288  36.3833594  79.2755782  28.6694551  36.9973922
  80.1044213  27.8528690  36.0293031   6.3092178  14.2483532  52.9481125
   6.2779105  13.3012474  52.8130531   5.5339605  14.5805836  52.4955320
  30.7602787  21.9727159  55.8596230  31.2580061  21.7527413  55.0721550
  30.8422732  21.1999226  56.4184618  20.5987511  75.2572630  26.3132919
  20.3303109  76.1759327  26.3280548  21.4884369  75.2733468  25.9605374
  52.6559441  63.2678293  15.0871147  51.9462244  63.0124854  15.6764664
  52.7916853  62.5016688  14.5296253  61.3133718  58.6853314  16.7812884
  61.7708124  58.5907341  15.9458053  60.3886564  58.5703112  16.5624189
  43.0878639   1.1073507  50.2356911  43.6849689   0.3654721  50.1391840
  43.1417036   1.5685908  49.3986797  81.5815170  67.0886827  50.6068087
  81.8132217  66.7337335  51.4650393  81.5953143  68.0380059  50.7285738
  22.1618795  16.2589931  67.6020670  22.3145294  16.2906849  68.5464859
  22.1404600  17.1770453  67.3319674  13.6812139  33.2917142  52.1643543
  13.3474767  33.8473511  52.8687143  13.0841196  32.5438046  52.1459484
  11.7547584  46.7304277  47.8840828  10.8161449  46.5485144  47.9303885
  11.9878566  47.0130825  48.7683916  29.6729565  37.1563697  69.8405600
  30.2297425  37.8536057  70.1870918  28.8908982  37.1779799  70.3920555
   7.2229728   6.7588875   2.6362194   7.3408613   6.0552142   3.2743229
   8.1093177   6.9622538   2.3374523  49.0759850  35.7582474  59.6480703
  49.8046017  35.1584625  59.4880581  49.3722200  36.3065195  60.3746176
  82.1971981  29.7361611  20.3940071  81.7899029  30.3662120  19.7995533
  81.5002481  29.4988845  21.0057129  78.9237682  66.4886974   2.7920307
  79.7881309  66.0968565   2.6672758  78.9644377  67.3161529   2.3125567
  44.6056128  37.6953769  55.3592873  43.6713123  37.8600621  55.4865646
  44.9617147  38.5389900  55.0804663  43.6413173  60.4119240   5.3931727
  43.9479105  61.3186620   5.4009403  43.3340291  60.2706586   4.4977106
  13.5879135  29.2200375  59.3272305  14.2054880  29.6656704  58.7473631
  13.5978127  28.3091879  59.0331411  25.8727932  12.9129410  49.6962929
  25.5472016  12.5185227  48.8871861  25.9591317  12.1778321  50.3032446
  26.9996438  33.1110213  17.9330410  26.8024907  32.1807835  18.0426945
  26.1764273  33.4966014  17.6332440  23.8554255  45.3059988  35.5488743
  24.6424083  45.4783221  35.0319733  23.1621675  45.1917131  34.8988308
  43.7485854  74.3011116  11.5805306  43.8957695  73.3582376  11.6550984
  44.2697565  74.5656704  10.8224930  22.5392318  22.4241829  52.4627447
  22.5858140  21.7001033  53.0870581  21.8932366  22.1412253  51.8155479
   2.7532086   2.1950934  35.8619560   3.4474167   1.5764115  36.0889687
   2.7728305   2.2368596  34.9058689   8.7848561  69.2621039   5.9554590
   8.9106076  70.0580476   6.4720740   8.2700246  69.5457457   5.1999964
  53.9802949  40.6519328  22.4785771  54.1436164  41.5867972  22.6034226
  53.4638493  40.3949138  23.2424225  81.5333278  73.8774825  27.0005059
  82.0505841  73.6775161  26.2203193  81.6208179  73.0998088  27.5516868
  33.9862704  22.3403978  39.1478753  33.9883757  22.8494048  39.9585176
  34.8358989  21.8996072  39.1396308  62.4508993  46.9235842  18.8766827
  62.6031010  46.7921184  17.9408516  62.3708622  46.0387664  19.2329468
  34.7735381  35.8861661  59.7494411  34.4983959  35.4782987  60.5705214
  35.1835537  35.1764393  59.2550659  84.7002418  74.1530527  44.3009520
  85.3500707  74.5167328  44.9023581  83.8813813  74.5856512  44.5429325
  85.9258301  63.1863941  66.3621283  85.4999692  63.8135732  65.7777309
  85.3778679  62.4030901  66.3130951  10.9998786  24.6824193  62.4552155
  10.5937493  25.5490851  62.4686909  10.6965625  24.2632270  63.2605171
  21.0726523  45.8553219  64.3958712  21.9902825  46.1191273  64.4636393
  20.5926728  46.6786909  64.3069172  68.5745494  44.2761041   7.7877487
  69.4648640  43.9245819   7.7854122  68.3400075  44.3404205   6.8619599
  70.8495569  34.1039085  35.3467703  71.2725067  34.1536307  34.4895220
  71.3294268  33.4181476  35.8111906  15.8231759  23.7226176  41.1335802
  15.8458722  24.6240711  40.8124876  15.2445567  23.7542343  41.8954420
  31.0937977  28.4399462  49.6840715  30.8864021  29.3742013  49.6644497
  31.7221618  28.3490896  50.4004049  17.4541032  11.5000153  35.3721714
  17.9025388  10.6642520  35.2431893  18.1085098  12.1605420  35.1448226
   9.9024922  29.5748210  40.8101940   9.7722590  30.5150867  40.9333611
  10.5396676  29.3312836  41.4817047  36.7606235  20.1882911  34.6309376
  37.3007631  19.5852864  35.1416874  37.1913242  21.0374594  34.7291374
  18.6321807  20.8226800  65.8352661  18.4651232  21.1463642  64.9500799
  18.0780029  21.3645196  66.3969851  37.1625805  42.5520611  50.4591513
  36.9226933  42.4125767  51.3752460  37.5811434  43.4128428  50.4495573
   2.6673290  23.0909348  50.0150204   3.0509916  22.2918940  49.6536779
   2.6285830  22.9326987  50.9582567  54.8045588  16.4400673  51.8798876
  54.6524954  17.3446214  52.1535492  53.9432192  16.0258782  51.9325781
  55.8760977   9.8654431  59.6066284  56.5325880   9.5684648  60.2367496
  55.6031799  10.7234609  59.9315166  32.8635931  24.0069556  61.9584656
  33.4209061  23.7596202  61.2205887  31.9962764  24.1303039  61.5727425
  34.9450541  11.1147404  51.5164709  35.7745314  10.6460416  51.6087675
  34.9011087  11.6782343  52.2889853  22.6826215  27.4203181  69.2229128
  23.0448055  27.0858669  70.0433969  23.2457876  27.0492721  68.5436487
  12.5932686  58.0291294  10.1542248  12.0965640  58.7449239   9.7577919
  13.4998826  58.1947731   9.8956837  52.8763390  45.4361725  51.5555763
  52.2293091  44.8131657  51.8864059  53.6606026  45.2668619  52.0775890
  39.9338977  19.5993541  14.1635765  40.7312457  19.9632166  13.7787689
  39.7126643  20.2035497  14.8722614  49.7681801  64.8090933   9.9671520
  48.8852136  64.6928571   9.6163048  49.6632378  64.7196053  10.9143604
  60.5444209  65.4598974   8.8953652  60.5822389  64.7530101   9.5396580
  61.4609663  65.6680010   8.7140574  18.2119000  27.8324795  24.8943257
  18.5465252  27.1798348  24.2792535  17.3291540  27.5300550  25.1077080
  68.5994716  60.5425144  63.9137745  68.5624332  60.4490019  64.8656750
  69.5342452  60.5306412  63.7081337  24.2579365  41.7729902  55.6337214
  24.6638298  42.5990772  55.8965349  24.6861839  41.5477991  54.8078156
  71.9927677  16.0178397  17.2493710  71.9240579  16.4552663  18.0979981
  71.6871377  16.6696332  16.6185059  27.1774360   1.8811177  47.6576233
  26.3008599   2.2649716  47.6352072  27.6890388   2.4167680  47.0513391
  22.8549433  39.9179840   3.4825850  22.3419976  40.7066011   3.3059469
  23.7467408  40.2378750   3.6189589  24.6710658  14.2646205  54.1448164
  25.2660966  13.5159266  54.1044807  25.2415609  15.0287223  54.0616703
   5.9601176  46.8051338  65.3742743   6.1276215  46.7138386  66.3122702
   5.0102258  46.9035482  65.3090668  28.4308549  38.1275715  37.8673901
  28.8887498  38.8938390  37.5218453  28.7496799  37.3981635  37.3358406
  65.7381023  75.9118033  45.0014925  65.1654292  76.3248135  45.6477928
  66.6040976  75.9194804  45.4092026  53.3688657  58.0440603  21.4193691
  53.3768837  58.9754246  21.1986221  54.2807238  57.7680896  21.3267006
  28.3953023  26.4979649  13.9326680  28.9490581  26.7265606  13.1861222
  28.9103103  25.8597922  14.4263637  83.6500441  10.8233392  59.2907381
  83.1456935  11.6065252  59.5109272  84.3018638  11.1278713  58.6593723
  20.7966471  46.3777161  59.6524763  20.1999712  45.6307554  59.6049309
  21.2856150  46.2423849  60.4641581  53.6857526  12.9107379   4.3743815
  53.0535595  12.2016762   4.2569412  53.1480853  13.6924718   4.5010246
  72.1493502  78.6680818  47.5677299  72.0053108  78.2708914  48.4266376
  72.5575609  77.9750515  47.0487833  38.1576657  33.8491011  19.9264407
  37.2265911  34.0710783  19.9341524  38.2546616  33.2488084  19.1872025
  53.9286010  58.0070757  13.3112396  54.5562379  58.7221037  13.2061733
  53.7663333  57.9673742  14.2537464  20.3128466   1.1408827  14.2057957
  19.8974929   1.2664817  15.0589813  19.6373496   0.7260058  13.6693062
  19.3327284   8.7335080  28.4124899  18.8089526   8.1744528  28.9863777
  19.8684931   9.2550987  29.0100956  45.2898455  42.5447893  46.7344999
  46.0962963  42.1333504  46.4237118  45.4346895  42.6783466  47.6712036
  18.8760638   0.8362854  49.5292139  19.2855310   1.3068531  50.2552557
  18.8044083   1.4877768  48.8316107  22.6121330  34.8840284  58.4600830
  22.5641012  33.9365005  58.3331442  22.6361442  35.2435708  57.5732994
   0.5597790  69.2042280  28.3467889   1.3148888  68.7256206  28.0047703
   0.5830749  69.0456284  29.2904711  29.6827555  35.2671289  59.3268871
  29.6316862  35.0774002  60.2637053  29.8401785  36.2102151  59.2817450
  66.1022107  76.2201665  14.3241467  65.2983968  76.4537810  13.8598789
  66.5201251  77.0595025  14.5167412  42.8995419  19.2484868  67.3364878
  43.0370951  20.1089644  67.7325773  42.2968388  18.8039804  67.9326391
  18.0446632  80.2978010  61.0225868  17.1176870  80.4708218  60.8582258
  18.3190449  81.0014334  61.6106749  43.3347416   9.2744195  48.1416130
  42.9243994   9.8476350  47.4941015  43.3731699   8.4189153  47.7139807
  20.7232881  22.0245481  67.0856953  19.9461269  21.7688489  66.5888357
  20.5684090  21.6816378  67.9658413  18.4610939  11.1619782   6.8630832
  18.7415719  10.2523887   6.7620409  18.8343418  11.6132295   6.1059242
  12.7354916  77.4841783  67.5962925  12.6550730  78.1280146  66.8925571
  12.3242147  76.6939546  67.2460985  58.9993477  21.2771630  34.0976763
  59.8313332  21.7438078  34.0184689  59.1750193  20.5799031  34.7294974
  31.5263064  55.1298808  16.9500984  31.1254670  55.1565801  17.8189243
  32.4239491  55.4308544  17.0911183  23.1763363  33.2309651  61.9187832
  22.3152208  33.4421659  61.5580797  23.5708404  32.6472640  61.2707949
  26.1391568  32.7915382  65.5025625  26.8168235  32.1296334  65.3651381
  26.0742164  32.8738785  66.4540005   0.2252722  26.4327884  43.9589834
   0.0163751  25.5009007  43.8943338   1.1177947  26.4547849  44.3041658
  11.7365181   3.8758472  65.8812523  11.3236260   3.0123386  65.8709669
  12.5558937   3.7552738  65.4013395  24.3543728  72.3835392  18.9391124
  24.1417225  73.2769866  19.2088592  25.1114424  72.4814785  18.3616269
   8.4897584  26.9875264  52.0320988   9.0294480  26.2071037  52.1582174
   8.1118035  27.1593022  52.8945827  49.4105291  49.9802780  56.9014978
  49.1089916  50.2548981  56.0355377  49.1271639  50.6821060  57.4874830
  27.6860142  29.0871716  61.6449165  28.3194804  29.5984340  62.1484661
  28.2037044  28.6833405  60.9483910  34.9821591   6.4744735  26.9945097
  34.8727894   6.2448597  26.0717177  34.1424346   6.2536615  27.3974204
  22.5974941  35.6852794  55.7824087  23.3980536  35.2708745  55.4605341
  22.0234251  35.7236814  55.0174189  66.9357173  69.0439676  18.6549534
  66.3001863  69.3783806  18.0221047  67.4568884  68.4119176  18.1598534
  24.4039838  66.0071515   6.8331684  25.2771751  66.0719203   7.2199167
  23.8176219  65.9002470   7.5821604  11.3646209  30.3798842  58.4501362
  12.1616673  29.9116015  58.6984444  10.6679440  29.9438524  58.9407969
   7.7247077   0.3886790  63.4334803   7.6294690  -0.4684747  63.8487530
   7.1623945   0.3439666  62.6601553  27.5886512  40.3720903  60.4983282
  28.5342407  40.2314472  60.5463839  27.2422433  39.9399209  61.2790108
  53.9283370  19.6800828  23.7877512  54.1769766  19.2770791  24.6196151
  53.1564545  19.1895640  23.5052276   8.5211337  23.7134171  42.0367384
   8.5419273  23.7818646  42.9912615   8.8855553  24.5433474  41.7291021
  41.3626544  60.1349174  42.1702732  42.1855382  59.9353109  42.6166405
  40.8287386  59.3494867  42.2897019  64.6773862  21.3178921  54.9383211
  65.0034856  20.7047224  54.2795992  65.0290989  22.1668148  54.6702576
  52.7295556  47.9337087  61.2652276  52.2020975  47.1424916  61.3747494
  52.4414411  48.5131653  61.9705300  76.4226686  10.7797062  48.8510418
  76.1954462  11.5756106  48.3702755  75.9272050  10.0866318  48.4146976
  58.8656299  36.1039044  20.2988495  59.0313355  36.4323588  19.4151749
  58.5233871  35.2199720  20.1655640  30.5423880  17.0143366  65.3226089
  30.4219675  16.2072134  65.8228922  30.8091021  17.6626027  65.9744120
  16.7223394   4.8910964  53.6439371  17.4702191   4.6567035  54.1934538
  16.5303504   5.7997745  53.8756180   9.7541243  39.9612641  37.9023814
   8.8085806  39.8287034  37.9702497  10.1224506  39.4216967  38.6019778
  78.3730132  77.6028762  38.5745120  78.6307676  77.8612105  39.4594169
  78.6808426  76.7005492  38.4891891  31.6852498  11.7836630  51.1240482
  32.5953269  11.5541422  51.3119602  31.4277983  11.1865854  50.4215860
  26.3776588  41.5514088  65.0152922  25.6059027  41.0966539  64.6779251
  26.4285874  42.3541117  64.4963408  27.9695678  25.0593662  63.4164619
  28.8251901  25.1382351  62.9946566  27.9118037  25.8263540  63.9862204
  39.0981603  39.8660946  26.2317538  38.6760926  39.5904064  27.0454407
  38.4512305  39.6797967  25.5513072  22.0542932  20.9709501  45.5640411
  21.1561656  21.1759663  45.3041029  22.3443604  21.7417979  46.0517740
  50.9054439  76.3497399  28.4924378  51.7972128  76.0305999  28.3541264
  50.6644742  76.0196494  29.3580021  21.7510271  32.5418496  32.1193790
  21.7732215  33.1322765  31.3662958  22.6432419  32.2010374  32.1828985
  53.7576675  11.1795306  29.8094749  53.1557131  10.5640197  30.2278399
  53.2001829  11.9036376  29.5246816   0.3823750  59.2870437   0.4883923
   0.3970330  58.3314453   0.5417694  -0.4429014  59.5374952   0.9036268
   1.7649090  10.0754678  60.3117800   1.1702426   9.7785425  61.0005713
   1.2685250  10.7429004  59.8380995  41.3318062  17.1276665  25.4719782
  41.6385221  16.2333488  25.3224730  42.1320009  17.6369381  25.6006885
  13.3879352  50.4715490  47.2662783  13.1184947  50.5006790  48.1843090
  13.9328575  49.6872759  47.2013712  14.4666493  11.6811836  69.6139860
  14.6746671  11.7725456  68.6841393  14.1757965  10.7739305  69.7063303
  40.9070206  38.3590603  40.9022474  41.6433191  38.8100958  40.4891300
  40.4981613  37.8664374  40.1906395  15.3567636  35.6406474  54.1389847
  15.5835223  35.4215884  53.2352018  16.1291802  36.0941529  54.4765329
  55.7408994  68.1590546  29.1191506  56.3644875  68.8640512  28.9449406
  55.1558698  68.1641270  28.3615589  79.4930165  35.7693553  67.7342749
  79.6067118  35.7014775  66.7862749  79.1640925  34.9100590  67.9981899
  67.2428886  64.4578599  27.4053635  68.1565659  64.7328709  27.4815048
  67.0434300  64.5449709  26.4732327  37.0600414  13.1909287  57.2583008
  36.6363287  14.0435898  57.1599770  36.3531232  12.5568843  57.1379423
  24.4745071  81.1307816  28.5617995  24.6997269  80.2087213  28.6855459
  25.2631100  81.5215295  28.1854272  29.0174842  36.1642003  63.7992477
  28.9396214  35.3863239  63.2469082  28.7150884  35.8773470  64.6609306
  57.2599792  18.3538949  64.3676519  57.9609585  18.9484060  64.6348906
  57.2699833  17.6600826  65.0270081  31.6888213  36.6136479  61.2841177
  31.5376282  37.1894717  62.0336533  32.2997808  35.9524846  61.6094208
  42.5490904   8.2927591  39.4597960  42.1728468   9.0575433  39.8954320
  43.3477354   8.1050104  39.9528885  14.8414425  61.2736462   3.5860933
  14.9663655  61.7119692   2.7443709  15.5719308  61.5772890   4.1250004
   3.3829698  46.4944744  48.3320379   4.0182763  45.8783007  48.6966515
   3.5768130  46.5118313  47.3948288  49.3321411  48.7734352   9.4927944
  49.4029276  48.6850087   8.5423197  50.1863567  49.1075151   9.7665371
   5.7359036  78.5272033  41.5679979   6.5427883  78.3067475  41.1026335
   5.7920106  78.0387921  42.3893023  44.4090704  56.6573928  13.4963288
  43.5815541  56.7168544  13.9737286  44.4813971  55.7335399  13.2565464
  37.9726744  38.2313085  34.0592885  38.8037038  38.5143709  34.4407272
  38.1083059  37.3075652  33.8482547  86.4138944  81.8310869  41.1144161
  86.9382722  81.5524989  40.3636503  85.5074842  81.7390339  40.8208561
  33.1031684  65.2729415  -0.1914440  32.5427405  65.9663342   0.1569189
  33.6681016  65.0303219   0.5421890   8.8366097  37.2760534  23.7285304
   9.0106010  37.7037048  22.8900361   8.8649672  36.3400054  23.5304308
  33.4864569  12.5345159  43.2570028  34.1025829  13.2133424  42.9816580
  32.6645255  12.7677357  42.8254128  81.9341223  38.6314538  35.8424534
  81.2939541  38.3548595  35.1867737  82.5595037  37.9081451  35.8866371
  68.6574173  25.6765413  16.4134264  68.1239033  26.4711595  16.4000821
  68.2674217  25.1149297  15.7435560  15.7266641  29.6145630  69.3271923
  16.2163925  29.1590261  68.6424398  14.8390758  29.6901751  68.9769030
   9.3514937  33.3598351  45.2514744   9.1911107  32.5207877  44.8196125
   8.4977913  33.6170030  45.5997419  11.2905503  26.9480348  35.9154201
  11.0611344  27.8017354  36.2825656  11.8916608  26.5660000  36.5549135
  18.8535774  54.1070938  59.2608881  19.5646966  54.6221447  59.6420288
  18.1088853  54.7079992  59.2367744  44.3927717  16.3753855  45.5033302
  44.6397829  15.8099759  46.2351322  43.5559940  16.7575967  45.7678032
  22.2502255  16.5338337  58.1283808  22.7206993  15.8766747  58.6412477
  21.5157318  16.0560977  57.7430010  40.1764917   4.3176270  31.7128801
  40.2313519   3.3671755  31.6135597  40.7154369   4.6642521  31.0018063
   0.7713264  35.4393506  63.2064533   0.0003227  36.0035253  63.1473589
   0.5878107  34.8596239  63.9456892  54.9649520  79.4165757  66.4937162
  54.5055414  79.9619173  65.8551455  54.3202717  78.7590469  66.7550135
  52.8953163  48.2682131   2.5955023  52.9919974  49.2195474   2.6384844
  53.2746617  48.0268525   1.7504753  49.5278645   6.6133606  65.0508785
  50.4422235   6.4460206  64.8224449  49.0307856   6.2972289  64.2964220
  59.3903200  43.3633855   2.6471771  59.2555086  42.9658851   3.5074391
  59.2470281  44.2988865   2.7904858  62.1039907  41.8370465   2.2714533
  61.2349455  42.2382625   2.2670807  62.7043144  42.5641538   2.1066631
  46.0448651  28.6868654   6.8064465  47.0009140  28.6749827   6.8518461
  45.8508913  28.8426827   5.8821501  22.6186943  13.8459802  65.9530926
  22.3213649  14.5288825  66.5543175  22.8494716  14.3161261  65.1518869
  26.9644761   9.2542505  63.7225246  27.3394489   8.8810360  64.5202303
  26.2447882   8.6646152  63.4975576  29.3571663  37.9315495  40.9159470
  28.4797883  38.1490207  40.6010723  29.6312118  38.7024093  41.4128447
  29.3048414  71.0120605  16.8473591  29.1118675  70.6723164  15.9735359
  29.2698500  71.9634007  16.7475666   4.9110019  75.0035906  25.9500837
   4.0744674  75.4681635  25.9253073   5.2912617  75.1486158  25.0837088
  37.3140049  40.6612349  48.5576344  38.2503772  40.4765654  48.6306620
  37.1122169  41.1858988  49.3323898  52.1556520  28.8835526  70.3956079
  52.5175667  29.0708613  69.5294857  51.8636513  27.9735851  70.3415060
  62.4149887  48.2481508   0.1409926  62.5031201  49.1488998   0.4526295
  62.2481291  47.7361642   0.9323610  75.9159195  12.8117383  47.4905586
  75.1361095  12.5823164  46.9850922  76.6387414  12.7226770  46.8694067
  34.5977449  35.7401657  46.7268038  34.8905206  36.6236806  46.9502211
  33.6421609  35.7950068  46.7360163  60.8494043  22.0280385  52.8720999
  61.4921999  21.3229084  52.9484797  60.8302116  22.4297643  53.7407064
  20.0480946  71.1188317  63.6415100  19.6542509  71.9816888  63.5126781
  20.8982094  71.3009513  64.0419722  48.5319757  51.7297602  59.2075109
  47.7444839  51.8697786  58.6816883  48.5307169  52.4505615  59.8373318
  80.7851499  35.0703669  58.4379053  80.2895295  35.1109052  57.6200104
  80.1619857  35.3474450  59.1095638  39.8171639  42.1278954  46.7126036
  40.5333948  42.4115181  47.2807598  39.9470901  41.1844587  46.6162586
   1.5193716  81.1780956  50.8154856   1.9583097  81.7191532  51.4718579
   0.6398502  81.0409429  51.1674212  53.3911840  74.8327441  28.3288980
  53.9555664  75.5859281  28.1544876  53.3001463  74.3999929  27.4799728
  45.1269960  40.3924799  55.2506256  44.6704531  40.4230976  54.4098711
  44.5919943  40.9312963  55.8334446  68.8985939  66.7403103  44.5098734
  69.5738478  66.7544652  43.8315916  68.2366187  66.1347557  44.1762209
  11.7089212  15.8108032  39.4951606  12.2464979  16.6013491  39.4474173
  11.9645631  15.3967428  40.3194380  17.8840649  46.8652534  55.9664726
  17.9425609  46.2693977  56.7133045  17.7737606  47.7312422  56.3590622
  25.4290748   6.9180745  55.6789732  24.5965457   7.0964092  55.2415705
  26.0940480   7.1305329  55.0240660  42.3956065  27.4029325  -0.1372228
  41.9907157  26.9973479   0.6294550  41.7227809  27.9908608  -0.4805551
  78.4833550  26.6677761  51.6476154  79.3043029  26.8494058  52.1050930
  78.4033137  25.7141614  51.6687202  22.0598650  48.9969635  62.1237564
  21.2245440  48.5745049  62.3237658  22.5968075  48.8462687  62.9017162
  65.0770044  39.1074824  68.6687374  64.8647022  39.3215322  67.7602530
  64.2385960  39.1547894  69.1281652  68.4649134  22.4280119  35.9494686
  67.7278280  23.0232930  35.8131695  69.2319727  22.9997563  35.9804606
  21.8626857  44.6306181  67.9800224  20.9563160  44.6196318  68.2876062
  22.3707080  44.2976141  68.7197924  29.2586422  42.7232170  42.6997852
  29.1173553  42.6010799  41.7609787  28.9067149  43.5941792  42.8836393
  37.8528142  33.9538741  54.4469833  38.6842346  34.3649220  54.6836567
  37.9500675  33.7327075  53.5207748  49.2363278  70.3236698   0.7193197
  49.2211000  70.7478975   1.5772404  49.4999115  69.4219278   0.9026684
  19.7881699  24.0777969  43.7917614  20.5150223  24.6964788  43.8635349
  19.5115900  24.1382527  42.8773832  53.7828779   9.7110778  55.2134943
  53.2869387   8.9589542  54.8900938  53.1451988  10.4243958  55.2413416
  18.2465351  22.6606560  16.4971244  17.5000668  22.2683907  16.0441947
  18.4767509  23.4219623  15.9645402  52.8155994  45.1212406  63.8965034
  52.9165649  44.4311285  64.5520830  52.3133373  45.8033705  64.3422174
  18.0410087  15.6673610  51.0086823  17.6084757  15.2000821  51.7233849
  18.5951722  15.0075126  50.5918694  19.8291955  26.5993760  12.7749123
  19.6740327  26.5757392  11.8306698  19.2106852  27.2520802  13.1030144
  48.2773209  17.5272965  34.2829156  48.2806492  18.4115863  33.9165092
  47.3543024  17.2738445  34.2885375  71.4067547  64.7327493  16.3803829
  72.0322887  64.9425624  15.6868996  70.9647028  63.9414071  16.0728134
  14.4591796  81.4645672  67.0621824  15.1660097  81.6833878  66.4549446
  13.9245522  80.8277702  66.5879488   2.5706202  16.5660906  39.8175406
   2.3279588  17.0890439  39.0534282   2.3853828  15.6633890  39.5585990
  44.5710707  40.4605579  43.4309626  45.2871609  41.0353708  43.1607056
  44.0307045  40.3660822  42.6465464  76.6621501  59.4109417  67.2434092
  77.4679918  59.6144558  67.7182055  76.9009192  59.4930435  66.3201094
  70.6828901   6.3091633   9.6354927  70.5482921   7.2498677   9.5206513
  69.8756083   6.0001347  10.0466217  10.2507918  66.0036777  22.4750294
   9.9461930  66.5736269  21.7689003  10.9537833  66.4985536  22.8958954
  58.9813757  14.7144270  40.3182459  59.6804428  14.2775154  40.8047104
  58.2575607  14.0881002  40.3245878  54.3236446  39.1323757  62.8917122
  53.5333443  39.6449447  63.0617952  54.3746519  39.0804386  61.9372845
  35.6276894  41.9847441  52.8882790  36.1307359  42.2443056  53.6601591
  34.7247267  41.9242239  53.2000875   2.4716172  14.6028254   5.3872646
   2.9406509  14.3619464   4.5883812   1.9091043  15.3313038   5.1243319
  12.0371580  29.7164822  42.5811529  11.4954758  29.2513227  43.2186794
  12.1838796  30.5769253  42.9740143  19.8478353  26.5888810  46.0774612
  20.0378752  25.9279490  46.7432594  20.4422569  26.3805938  45.3566885
  32.7912879  20.4888153  37.3255348  32.1572208  21.1059666  36.9604135
  33.1933951  20.9615874  38.0542517  15.3581929  34.8268747  47.7512264
  14.9544001  35.3086543  47.0293760  16.2853444  34.7788858  47.5181627
  54.4266081  42.2641706  62.6214600  55.1155758  42.8842306  62.3825455
  54.6936512  41.4404964  62.2134352  30.7479477  40.2386141  61.3602066
  30.9729147  39.4609427  61.8709421  31.3359857  40.2079058  60.6055546
  72.2382689  27.4550438  46.3067818  72.0142221  26.5598989  46.5612411
  71.9938898  27.5097036  45.3829193  32.8186488  34.4537973  70.0675344
  33.4354854  34.0573406  69.4522524  33.1758142  35.3256583  70.2364302
  25.1695251  44.1403103  67.8292894  24.6297050  44.9164104  67.6793051
  25.8272409  44.4250059  68.4637880  47.5601387   5.8616638  63.1513119
  47.3127222   5.2550286  63.8491726  46.7680502   6.3732451  62.9866743
  36.7513895  32.2902107  56.2366343  36.3543701  31.5561032  55.7679224
  37.1536684  32.8229475  55.5506372  29.5357499   1.1150477   2.6607002
  29.3573413   2.0305321   2.4455561  30.0579867   1.1546824   3.4619059
   1.1330121  61.5545057  18.3869995   1.7417996  61.8020438  19.0829338
   0.8026164  60.6960867  18.6519207   1.5362685  28.4324180  10.0298943
   0.9493725  27.8011213   9.6136536   0.9584038  28.9876734  10.5533375
  61.9361083   0.7763242  27.7329135  61.9990270   1.2368344  28.5696959
  62.3696105  -0.0628520  27.8881645  29.0229988  15.0910830  47.7886105
  28.2534528  15.2446437  48.3367443  28.9523864  15.7407618  47.0892048
   8.2644661  68.5326458  30.8926058   7.7837928  68.0766762  30.2017522
   7.9417809  68.1438411  31.7055869   0.7316419  59.1469336  59.2455006
   0.5958664  58.3511400  59.7598124  -0.1216407  59.3249893  58.8499784
  22.9085016  33.2009482  45.9527302  22.8192472  33.8736153  46.6278505
  23.4355712  32.5164223  46.3648653  19.6612096  16.6880286  15.9663546
  19.1755104  16.2457323  16.6625595  19.0321779  17.3028624  15.5888212
  46.9929838  30.3569865  51.2385225  46.1096382  30.7198834  51.1734581
  47.2850847  30.2735138  50.3308105  45.1310730  23.0310988  24.4150972
  45.5992079  22.7878308  25.2137852  45.7999706  23.0134821  23.7306237
  33.5649967  23.8029552  59.2718554  33.7566805  24.7094393  59.5122194
  32.9328465  23.8733864  58.5565519  15.2918149  30.3330851  57.5568533
  15.5813695  31.2409616  57.6471329  14.7666932  30.3276205  56.7565775
  41.9212198  32.1370745  57.9257441  41.2842369  32.6902986  58.3778811
  42.0436239  31.3874912  58.5083008   5.7388848   7.4799633  66.1841393
   5.1615351   8.1877232  65.8978224   6.3250744   7.8911889  66.8193626
  21.8178916  13.9762092  61.4855528  21.6002774  13.4558940  62.2589540
  22.2210264  13.3517408  60.8824348  46.6934149  66.4043258  23.8502945
  46.7190270  66.6999911  22.9402603  46.8817083  65.4670213  23.8029923
  49.5398855  36.2494826  65.9168816  49.4280291  37.1694112  66.1565781
  48.7200594  36.0137200  65.4826784   3.9742172  39.6414089  59.4532013
   3.6973271  38.8104868  59.8393774   3.2518873  40.2425623  59.6350956
  54.7365618  64.4559717  60.7542658  55.5804873  64.5092773  61.2028027
  54.1428757  64.0809250  61.4047337  49.0087175  21.8776345  61.9649410
  48.6580372  21.2736392  62.6194954  49.8324156  21.4773011  61.6865730
  27.6873398   9.9974197  43.8908672  27.0025539   9.3875891  44.1654682
  27.7514386   9.8748827  42.9437065  48.9658833  35.7664585  56.9347239
  49.0213633  35.7481694  57.8901386  48.3751678  36.4948344  56.7430067
  44.2776585  27.2656941  45.8819723  44.9561548  26.6045094  46.0187435
  43.4580994  26.7711687  45.8807564  18.9448476  29.8311329  66.8822050
  18.5639179  28.9703679  67.0560026  19.2074502  30.1552200  67.7437353
  19.4942772  18.9235735  60.6997728  20.3574705  18.9889777  60.2912998
  19.1056490  19.7898817  60.5784893  35.8708525   4.7997159  35.9729409
  35.2253199   5.3762317  36.3817811  35.3871441   3.9962268  35.7814598
  22.1692586  14.7353530  47.9759693  21.5107942  14.8909867  48.6530447
  22.2479582  15.5739105  47.5211477  31.1140823  48.1129694  69.7847795
  30.8890057  47.8075266  70.6635714  32.0015049  48.4609365  69.8721266
  10.4734266  42.6804018  62.2911167   9.7136366  42.1087599  62.1807575
  10.8768642  42.3874855  63.1082249  22.4823594  53.5857534  58.7340260
  23.3172226  53.7780285  58.3071041  22.5677156  52.6793861  59.0297461
  45.4758358  38.9141726  46.6729307  45.5730486  38.8696647  47.6241398
  45.7675123  39.7964811  46.4433861  63.9417259  66.5947007  32.3735871
  63.1918947  66.5847467  31.7787041  63.5908691  66.9376563  33.1954827
  41.2677670  28.0537200  53.9696789  40.7165241  28.8061285  53.7546301
  41.9053984  28.3953357  54.5965481  24.7897585  79.3942092  65.4632425
  25.3015860  78.9979506  66.1683941  25.1424892  79.0046776  64.6631956
  74.6158783  63.1582235   3.6871065  74.7219936  62.4125742   4.2778505
  74.4706099  62.7637242   2.8271689  39.7734976  36.1406755  48.4116602
  39.3381000  36.2194681  49.2604589  40.4398632  35.4667616  48.5459375
  25.0724840   7.8520173  49.5567751  24.9817157   7.3226357  50.3490829
  24.7640491   7.2827798  48.8517475  40.8056355  32.0591450  42.1962929
  41.3914204  31.3468766  42.4527264  41.2833786  32.5274515  41.5116882
   4.3805640  67.4266099   4.2692436   4.7515385  67.5647091   3.3977284
   3.4618752  67.6806711   4.1815056  23.0483565   9.6276448   4.1519369
  23.7106213   9.5681117   4.8404802  23.3477387   9.0171311   3.4782328
  66.2504148  47.0154715  58.1668425  66.1518478  46.0673571  58.2539892
  66.3086462  47.1644783  57.2231102  42.0107746  42.4414635  64.8633814
  42.6848888  43.0567074  64.5747995  41.5763140  42.1662092  64.0560961
  65.2744333  80.8980678   7.4983515  65.4756848  79.9738048   7.6448883
  65.7677333  81.1287235   6.7111553  23.6174512  33.1583834  42.8824139
  23.7126040  33.3648753  43.8122177  24.1527247  32.3751330  42.7550125
  39.6386957   1.6752259  67.4484873  40.4275894   1.2407085  67.7726412
  39.9040604   2.0622633  66.6142130  73.7707695   3.5663722  11.6160454
  74.2449089   4.3977139  11.6331162  74.3686577   2.9411957  12.0258202
  31.3114915  15.7612059   9.5889820  30.3789029  15.5939076   9.7250809
  31.7477212  14.9841235   9.9383797  62.0427802  11.0006449   1.4059891
  62.5870055  10.3814147   0.9195675  62.6132375  11.3247559   2.1029581
  80.3030425  27.3965049  32.2221088  81.1281412  27.0879197  32.5965667
  79.8659807  26.6012406  31.9175386  67.6490211  15.8973098  46.7400503
  67.3800707  16.5965700  47.3358107  67.3108196  15.0970495  47.1418381
  69.1461522  81.1930463  17.1198881  68.8066788  81.5487864  16.2986457
  69.5606871  80.3672490  16.8699849   8.0550760  33.1043911  64.5576572
   8.8721836  33.5699701  64.3793249   8.2756823  32.1802497  64.4413471
  56.9000165  56.5231370   0.8873905  57.7899138  56.2321375   0.6883015
  56.9305794  57.4743734   0.7851757  34.5289731  39.2399669  56.1931992
  33.9177060  39.9736762  56.1279631  34.0654492  38.5055447  55.7907057
  47.0941973  27.5649762  51.8140221  47.2504902  28.4846878  51.5997076
  47.9443169  27.2404385  52.1110010  49.3928957  20.6714058  64.7199059
  50.2482748  20.2589536  64.8400974  48.7668991  19.9513435  64.7965288
  47.0975685  36.4602375  47.9543066  46.4759064  35.7363915  47.8780746
  46.6104555  37.1474361  48.4089565  18.3706212  14.8014796  54.0819740
  17.6769853  14.1493678  53.9827251  17.9614520  15.5134034  54.5738840
  60.7239294  32.8910494  55.2997828  61.2867212  33.6453366  55.4745626
  60.7747078  32.3643875  56.0974550  28.5353589  27.3088050  52.3318243
  28.9423680  26.6512418  52.8959036  28.3089757  28.0256462  52.9243803
  41.8097734  30.7662201  45.7603168  40.9935570  31.2431765  45.6102133
  41.5409946  29.8511219  45.8414602  28.2011580  36.8985486  52.8361130
  28.5094666  37.7988529  52.9392195  28.9005184  36.4598870  52.3516512
  20.1150084  12.1540189  52.2395754  20.1730347  12.9012334  51.6441488
  20.2987432  11.3935041  51.6881323  20.9311461  55.7677412  47.4511623
  20.7481980  56.6886234  47.6375389  21.8099952  55.7701397  47.0718908
  52.9085159  61.5953350  56.9147110  53.1539679  62.3805761  56.4254427
  53.4240627  60.8940506  56.5164089  10.0015888  21.4990256   1.6980757
  10.7158384  20.8643744   1.7555346  10.2774415  22.2217486   2.2618212
   5.2812426  80.5589436   7.1634211   4.3428366  80.6095146   6.9815840
   5.4404204  81.2583374   7.7972521  62.0143740  75.3912090   9.4511189
  62.7673904  75.3760503  10.0418533  61.2544291  75.4190348  10.0324406
  24.2052841   6.8663746  43.3706665  24.1360545   6.7180836  42.4275589
  24.1610360   7.8176427  43.4674311  61.9490576  13.1116307  46.1469364
  61.4984655  13.9552450  46.1858177  61.4405060  12.5971305  45.5201244
  76.1026470  80.4877661   0.5253901  75.8170073  80.3102063  -0.3707777
  77.0255415  80.2340864   0.5373158  85.4932310  30.9752440  58.4213018
  86.1742662  31.0044503  59.0932894  85.0237855  31.8035746  58.5198975
  40.1921288  52.1881746   0.1124014  40.0385241  51.7557572   0.9524311
  39.9208335  53.0947374   0.2565397  27.5959158  45.0923252  42.3842096
  26.8948078  44.8828793  41.7671108  27.1404314  45.3709984  43.1786299
  46.1949949  62.4790691   2.7380242  47.0556967  62.0991133   2.9142584
  45.8428018  61.9519876   2.0208229  48.9817238  27.7417231  64.5424318
  48.5677910  27.6770067  63.6817884  48.3462954  28.2158470  65.0787783
   7.6095074  24.2102671  67.0425081   7.9159397  23.8712263  67.8835678
   6.8810505  24.7886443  67.2684813  62.4270868  38.0739307  50.7735682
  62.9340315  37.3788881  50.3538656  62.3950720  37.8229737  51.6967297
  53.2804680  14.1100097  53.1151104  53.9705563  13.5111570  52.8298378
  53.6434221  14.5430326  53.8877583   5.8757823  48.4717803   7.6474489
   6.3445752  49.2153423   7.2685303   5.7993834  47.8450070   6.9280399
  48.1458759   7.3427308  39.0621352  47.7233601   7.5494772  38.2284856
  48.2123995   8.1848580  39.5122766   1.4155865  24.8240256  58.8442373
   1.7765618  25.6997466  58.9822388   1.9443226  24.4558382  58.1363440
  59.3172328  73.0444096   2.4169745  58.4062616  72.8196810   2.2276129
  59.7057120  72.2270511   2.7288117  24.9990511  61.3851404  28.3595014
  24.1832876  61.5509748  27.8869987  25.5594420  62.1289444  28.1382561
  78.7554412  55.2557278  64.5117617  78.0841064  54.9012709  65.0947714
  79.0295457  56.0717726  64.9302912  13.1262493  21.3181400  26.0701632
  13.0976868  22.1310377  25.5655694  13.6790824  21.5235305  26.8241000
  13.4516966  32.2938919  62.0333052  12.8185868  32.5367069  61.3576984
  13.1110978  31.4771867  62.3982906  44.1006136  33.0478835  67.3337698
  43.9862680  33.0063081  68.2832050  44.1216993  32.1324944  67.0547533
  45.3320312  28.6894369  55.6296253  45.6295109  29.3376088  54.9911785
  45.9840250  27.9902029  55.5826235  19.6699564  76.2601470   3.4758629
  19.2530034  76.0884045   2.6315369  19.3291996  75.5779646   4.0544333
  52.4872343  58.9398526   9.6111550  52.7267186  58.1900285  10.1558079
  52.6226441  58.6367320   8.7133707   0.6690067  17.9539943  44.1177940
   0.0381545  17.2573149  44.2991638   1.3407505  17.5347841  43.5799694
  71.2270117  51.6811371  65.1807928  70.7165241  51.9036770  65.9593248
  71.4981222  52.5263262  64.8224878   4.0133023  65.0977945  61.3146925
   3.5960048  64.5489168  60.6507444   4.7964722  64.6105480  61.5705633
  54.2447090  38.8281679  69.6474314  53.9704275  39.7181702  69.4263029
  53.7892389  38.6337256  70.4665613  77.8155751  73.4011782  69.1016865
  77.8652437  72.5033564  69.4298363  78.6880405  73.7622208  69.2587996
  27.6606297   1.3502271  43.1211138  28.2099295   2.1340543  43.1319046
  27.9810452   0.8434649  42.3749495  38.2874870  25.0123811  58.4548378
  38.0451488  25.9379053  58.4850073  37.6201391  24.6080089  57.9004335
  42.6482058  43.0508232  48.1654215  42.4516153  43.9813471  48.0572081
  43.2675791  42.8535843  47.4627829  41.1067486  44.3466234  45.7646656
  41.9703054  44.0503740  45.4770231  40.6203747  43.5395193  45.9327602
  56.6756122  55.9141623  13.9667286  56.9613735  55.8605825  13.0547585
  55.7234256  55.9971164  13.9148869  77.1525240  37.1193695  68.4680128
  76.9887018  37.2324562  67.5317430  77.8471994  36.4623117  68.5119677
  52.4383116   8.8892460  42.7987528  53.2607174   9.2014253  42.4213600
  52.0887232   9.6455115  43.2700062  62.1823311  27.0144892  19.4612372
  61.2521458  27.0855427  19.6755683  62.2729635  26.1440516  19.0734828
  79.8513683   9.7928593  10.8903088  80.7321533  10.0933859  10.6664051
  79.9364790   9.4406293  11.7762722  16.1292824   0.0920985  30.0374092
  16.0786519   0.7917140  30.6887211  16.6178164   0.4770920  29.3098416
  83.1792831  50.5894613  65.2199268  83.8799286  50.9777260  64.6959209
  83.5240555  50.5819178  66.1128473  47.5284243  28.8385868  58.7868500
  47.0985079  28.0216599  58.5338020  47.6208448  29.3244433  57.9673147
  81.1132526  66.2282228  38.9442825  80.2184391  65.9611607  38.7340188
  81.6608429  65.7290125  38.3383346  52.5044107  56.4685774  45.3648949
  51.6532564  56.8767118  45.5236340  53.1009865  57.2044230  45.2275467
  57.0711756  60.3045893  65.5220509  56.7327642  60.8713388  66.2152338
  56.5382385  59.5115519  65.5795193  60.0264692  41.9176435  48.6083508
  59.7681808  41.4275742  47.8277445  60.2180195  42.7982712  48.2857990
  57.8699017  32.8330135  69.6990538  57.5893164  33.5058880  69.0787792
  58.2818890  32.1621680  69.1545677  15.2136311  23.8892958   7.0589270
  15.7869944  23.2415555   6.6491427  14.4866404  23.3763812   7.4119629
  75.4844332  36.2737846  38.9918089  75.3469992  37.1829510  39.2578220
  75.2161074  35.7584786  39.7525287  48.3206511  55.7659864  52.8604078
  48.3481741  54.8180485  52.9903412  49.2335749  56.0443449  52.9333401
  60.3474236  23.6400318  50.8106422  59.7668791  24.3091559  51.1732340
  60.8102417  23.2871485  51.5705776  47.6789427  53.5836554  55.5814600
  47.5566339  54.5314550  55.6357145  48.6230803  53.4581470  55.6767225
  68.2382154  43.8177299  55.2423143  67.8812456  43.8100100  54.3542004
  68.5727930  42.9305840  55.3736877  85.1733312  17.0089600  37.9844822
  85.6658491  17.3576281  38.7275089  85.8348450  16.8537257  37.3102917
  46.5981183   8.1933663   1.7123570  45.9137520   8.8620589   1.6853584
  46.2252841   7.4498246   1.2386812  17.9183087   0.1712630   5.6639733
  17.9864964  -0.4589536   4.9467482  18.1776843   1.0063050   5.2745403
  60.5206156  36.4820433  63.1956148  61.0651112  36.1444187  63.9067841
  60.1819611  35.6993484  62.7609539  56.0115099  52.7254391  58.6352396
  55.7206631  52.0720291  59.2713976  56.9127893  52.9230881  58.8899231
  20.3657994   9.0364239   0.7497038  20.6737647   9.7307608   1.3321842
  21.1387763   8.4936164   0.5944695  49.3035555  72.5518608  50.2520466
  50.1029301  72.8293896  50.6994915  49.1751909  71.6453362  50.5312777
  24.2247853   3.3320449  19.5944275  24.4985661   2.8841040  18.7940373
  24.9676976   3.8910267  19.8221459  67.6618671  41.2151289  57.3609114
  67.0180607  40.5087185  57.3086262  68.0307436  41.2687349  56.4792681
  27.3078680  15.7820177  58.7578297  27.1130967  16.6088474  59.1990185
  28.2328701  15.8490360  58.5209465  76.4001846  67.4609280  61.8913841
  77.3384523  67.4736309  61.7023754  76.2317514  66.5736485  62.2085619
  19.4735942  14.3384097   8.3221831  19.7470173  13.5471413   7.8581061
  18.5211882  14.2638753   8.3821501  62.1447897  62.5561523  69.0218496
  62.5923824  61.7429256  68.7882757  61.4688444  62.2873449  69.6440029
   4.9134645  15.0825713   6.8598284   4.3526110  15.1073334   6.0845484
   5.6770429  15.6075690   6.6199221  84.9411488  46.7916250  57.1599483
  84.0334702  46.6749048  57.4405336  84.8759365  47.2531366  56.3238955
  63.4015560  46.4242363  50.1028728  63.7230682  45.5237484  50.1474476
  62.4997807  46.3415051  49.7927237  86.5848732  28.5949564  61.0017633
  86.1779213  27.7305150  60.9437466  85.8915901  29.1641188  61.3358831
  77.4011278  43.4199476  32.3913813  77.4604654  44.2604017  31.9371247
  76.5438175  43.4376001  32.8167510  46.7500782  32.8567767  58.9752626
  46.0179281  32.2543430  59.1066217  46.6480684  33.1649637  58.0747890
  68.7279367  33.6734343  70.4413795  69.6651506  33.8259482  70.3205633
  68.3215570  34.0485764  69.6601248  56.5722466  55.2478361  45.9812593
  55.8679771  55.1969957  46.6275167  56.9322777  56.1282873  46.0881233
  77.4730253  44.6899557  50.9388447  77.0733261  45.2549171  50.2775669
  77.0550871  44.9495411  51.7599297  23.8564667  17.1515391  19.9518360
  23.8759646  16.7117570  19.1018738  23.3899340  17.9709170  19.7869076
  49.0134811  63.7075090  30.8260751  48.8942480  63.0902433  31.5478778
  48.4403372  63.3794069  30.1331925  31.8427873  38.4433961  59.2953634
  30.9111547  38.4694433  59.0771532  31.9334793  37.6816630  59.8678780
  58.6305571  80.2944279  31.7508101  58.3506250  80.2588367  32.6654696
  57.9083490  80.7277679  31.2959886  45.6742334  42.8607178  49.5642328
  45.1309633  43.3161688  50.2073956  45.4402924  41.9378853  49.6636629
  49.9377918  26.0653353  56.6497326  49.7189474  26.2151241  57.5694656
  50.8937740  26.1045671  56.6215467   5.8826869   8.9362668  19.7375810
   4.9497788   8.7494134  19.8425090   6.1754792   9.1925000  20.6121373
  41.2857580  42.1245050  62.1414518  40.3919125  41.9489813  62.4354982
  41.3148308  43.0730534  62.0163584  68.5570526  56.4972401  66.8584728
  67.9569483  55.7599354  66.9702053  68.3293152  57.1007204  67.5657082
  30.3847918  27.4165175   7.1336664  31.3137707  27.5876448   6.9789280
  30.3615317  26.9668458   7.9783453  67.9862404  29.2500782  52.1420813
  68.5084295  29.6467757  51.4448166  67.6104498  28.4653807  51.7430019
  62.7638674  43.5074043  63.6968088  63.2546949  43.7695265  62.9179573
  61.8849945  43.3122730  63.3716393  52.7228212  57.6688671  48.1154585
  52.2259998  57.1403742  48.7400341  52.0867062  57.9012060  47.4389935
   8.9481077  13.5132764   7.8786291   8.6477265  12.7320502   8.3430542
   9.5657382  13.1817649   7.2268118  61.4139192   0.4871987  47.8719091
  61.8293826   1.3495111  47.8656960  60.5221288   0.6487798  47.5639582
  83.9517157  60.7201658   7.7186264  84.5657913  61.1388753   8.3218111
  83.4082453  61.4379452   7.3935665  67.9505348  69.9900055  43.0849981
  67.3241472  70.6891251  42.8976536  67.4860525  69.1847658  42.8567791
  76.4938013  72.7887558  20.6912769  77.1732609  73.1456159  21.2633003
  76.2268345  71.9736098  21.1161293  77.9178270  25.7451317  15.6396450
  77.5701949  25.2631877  16.3900532  78.7406954  25.3027699  15.4312290
  84.2893354  72.1675180   0.2391638  83.5288279  72.1780728   0.8203234
  84.0967791  72.8349112  -0.4194246   0.3529542  23.7342881  47.1184587
   0.4925149  23.3146047  46.2695599   1.0784238  24.3531274  47.2018528
  38.7552342  13.2285998   4.9923433  38.6210284  12.6675580   4.2285027
  39.3876061  12.7528212   5.5308355  53.8805771  81.4392567  70.2880526
  53.0127239  81.0866451  70.0912428  54.4555092  80.6739521  70.2888203
  46.1542320  60.8239746  44.7464943  46.2458420  60.3071928  45.5469799
  46.9887590  60.7108164  44.2915297  66.7646885  40.9985781  69.4747162
  66.0142899  40.4207945  69.6136332  66.9611979  40.9157944  68.5415697
  27.5958476   2.0638154   4.4929661  28.1978402   2.5052712   5.0920881
  27.9009518   1.1567805   4.4720759  24.5977482   0.6704924   6.1828007
  23.6995301   0.7932065   5.8755936  24.9361071  -0.0504711   5.6517996
  46.9575739  33.5615182  68.7151432  47.2133541  32.8530550  68.1244802
  46.1833429  33.9473009  68.3052969  24.4191775  10.9160350  11.9933857
  24.1214213  10.0063632  12.0018067  23.7822089  11.3815711  12.5353970
  65.5522108  50.6078768  59.0118647  65.0645638  49.9347639  58.5371542
  66.4161921  50.6131077  58.5998631   0.7511998  52.2806883  52.6083279
   0.0703049  51.6173744  52.4959755   0.3890610  52.8889227  53.2526398
  27.4138245  24.0703938   3.0707087  27.5159964  23.7536881   3.9682020
  27.4498257  25.0238202   3.1476082  47.2805166  18.5754693  59.9453449
  47.4872303  18.5926068  60.8798027  47.8333521  17.8792822  59.5904779
  77.1452848  70.6234668  36.8173660  77.7157776  69.9185036  36.5111031
  77.6411764  71.0450815  37.5191940  15.3933526  62.9735231  46.3136816
  15.2508450  62.4963665  45.4962158  16.2959290  63.2866287  46.2540340
  72.3080254  66.2318897  61.8199873  72.1267605  65.8542585  60.9593058
  73.1616974  65.8739471  62.0636177  64.6095943  21.2724638  51.8431711
  64.6191788  22.2234559  51.9515800  63.7315702  21.0775876  51.5155554
  61.4366913  58.8642788  44.6076441  60.9860182  58.0234432  44.5294333
  62.1843386  58.6832285  45.1772738  59.4795179  44.0182209  66.6663742
  60.0400400  44.0539646  65.8912849  59.5015717  44.9077797  67.0191288
  48.4820890  75.6949854  60.7406139  47.5541592  75.9294748  60.7543898
  48.8988209  76.3323259  61.3205862   2.7317048  55.2078962  49.8487520
   3.3260728  55.8885145  49.5329714   2.7347184  55.3099918  50.8004856
   0.9371051  12.4422503  59.2524958   1.2997769  13.1531990  59.7809410
   0.0081356  12.4227631  59.4824266  79.1622639  53.2593155  51.6988897
  78.2523012  53.1498861  51.9749880  79.1927862  52.8821945  50.8196449
   6.7075739  16.3441537  21.6679730   6.9326887  16.6799424  22.5356163
   7.5238666  16.3982413  21.1710133  41.8645191  69.4429874  48.0204248
  41.9640398  70.3789663  48.1944132  41.0837603  69.3834019  47.4698877
  78.2076160  30.0158643  63.8787365  77.6401560  30.7029103  64.2282963
  79.0665905  30.1976728  64.2599773  28.4221015  34.6694110  27.9616131
  27.6665196  34.1614220  28.2570328  29.1316924  34.0298770  27.9007401
  57.9678726   3.8535720  59.2957401  57.2455549   4.4580272  59.1250801
  58.3743525   4.1859818  60.0960588  65.7590771  59.9757099  24.0213323
  65.8858633  59.2730188  24.6588111  64.8253870  59.9443722  23.8128471
  83.0179588  60.7174669   4.4294228  82.5271217  61.5392278   4.4338526
  83.5382502  60.7535766   3.6267866  46.4790440  25.1495671   9.5832527
  46.9328308  25.3492546   8.7644529  47.1436930  24.7294903  10.1291561
  51.0545397  37.1075130  69.3740273  50.5065393  36.4348364  68.9697599
  50.7110310  37.9332328  69.0328264  66.7545176  59.9522972  41.9194651
  66.0618067  59.3177748  41.7357206  66.5971184  60.6648302  41.2999868
  24.3954039  47.2101355  67.0783758  23.8664079  48.0049896  67.0105457
  25.3000021  47.5199986  67.0345354   4.1909783   6.5232610  54.6399975
   3.9758961   5.6040238  54.7980452   3.8058083   6.9902658  55.3814697
  53.9122343  70.3253984  51.9057512  54.2792130  71.1896133  52.0919991
  54.1679001  69.7897196  52.6566935   2.1317348   2.6947711  13.6702027
   1.4918313   3.3276198  13.3442368   2.9768476   3.1307433  13.5609211
   2.1055318  44.2459631  58.9587450   1.3631821  44.8426580  58.8633490
   2.7356625  44.7308922  59.4916725  80.4033184  47.6148653  66.8142080
  80.2839756  47.9197502  67.7136755  80.6869602  48.3924198  66.3333941
   1.2273503  48.1723881  58.0621481   2.0152665  47.8603697  58.5071993
   0.5046940  47.7731371  58.5464907  34.4987416  26.8613744  70.3767824
  35.2528381  27.3215938  70.0083113  34.6666718  26.8423915  71.3189459
  84.7589779  68.2485867  52.7035141  83.9060974  67.8696823  52.9162550
  84.9658203  68.8082981  53.4519577  55.7308578  42.3658991  48.5908318
  55.2604961  43.0851698  49.0123034  56.5736055  42.3330069  49.0435123
  48.2393217  26.2415934  61.8095922  48.1570721  25.2888083  61.8504000
  47.4370718  26.5688920  62.2164202  46.2929091   3.0573104   3.9082827
  45.4999861   3.0052827   4.4419398  46.9402108   2.5426076   4.3902744
  64.6727562  51.7783022  51.8552446  64.1824198  50.9729719  51.6901541
  64.1801834  52.4573803  51.3943148  85.7039642  35.2206182  49.8845959
  85.2258110  34.3920112  49.9164534  85.5947018  35.5939746  50.7591820
  60.2590799  57.3331547  56.5279388  59.7840691  57.6511097  55.7601500
  59.6345186  57.4184656  57.2482681  11.0176795   1.6917371  60.6787872
  10.2718060   1.9330930  60.1295567  10.6358378   1.5210961  61.5397787
  46.9812727  56.2326860  55.5165911  46.1974239  56.2844038  56.0635281
  46.8050432  56.8285561  54.7885036  58.8321877  24.2325091  55.3252506
  58.6976910  25.1398373  55.5989265  59.7762632  24.0958643  55.4045343
  53.6534568  12.6135419  11.3500370  53.6704585  12.3179743  10.4397644
  52.7468642  12.4821446  11.6276230  80.9026586  25.4011798  50.2538395
  80.1413929  24.8211837  50.2362013  81.5045451  25.0260067  49.6110249
  61.6002314  65.5236839  12.4240936  62.3589890  65.9653925  12.8054299
  60.8796374  66.1431526  12.5391354  47.3761988  36.7958808  63.6754036
  46.8703699  36.5804505  62.8918457  48.2512856  37.0015430  63.3465290
   8.9867974  22.3191881  51.8253565   9.6318722  21.7601490  51.3922358
   8.6345006  22.8665137  51.1235380  50.0665609  69.0949510  19.9423374
  50.6289832  68.7389515  19.2544617  49.4333903  69.6404050  19.4756378
  57.6427889  75.6786489  59.4068193  56.9639111  75.0090551  59.3231249
  58.4216690  75.2798462  59.0188313  35.4578528  18.8555882  14.7051586
  36.2647805  18.5890744  14.2646183  35.5056271  19.8111270  14.7350086
  25.2548981  79.9482441  57.0964909  25.1890850  80.8923531  57.2398949
  25.6752157  79.8647213  56.2405777   7.2579449  59.0933466  30.1340771
   7.1915334  58.3105278  29.5872521   7.9571998  59.6082115  29.7313499
  77.9640095   6.9197892  59.1603756  78.0322544   6.3126229  58.4235430
  78.8039581   6.8426465  59.6128893   1.6565896  50.8117485  63.0159140
   1.8771935  50.6690788  63.9363527   2.4709798  50.6364250  62.5444698
  62.8146362  54.9315548  63.5251713  62.0921898  55.2768850  63.0007219
  63.4281874  54.5753574  62.8825903  74.6974651  29.2649602  43.7077951
  75.1191656  28.5500669  43.2310057  74.9783747  29.1462373  44.6151114
  70.1420879  71.5487099  53.5309076  70.2734041  71.5996552  54.4776869
  70.6083822  72.3088980  53.1831741  50.7982349  66.6374540  46.8692350
  51.5415382  66.0587502  47.0390224  50.2253008  66.1292648  46.2950230
  75.8858061  44.4441462  59.7554159  75.0729465  44.6968079  60.1931953
  76.4550972  45.2080774  59.8478842  84.4857018  18.0427026  46.0814142
  85.1049225  17.8116273  46.7738056  84.4702808  18.9997720  46.0834885
  46.7670727  77.1038437  68.1979990  46.3033009  76.4051723  68.6595297
  46.3433266  77.9092360  68.4946632   0.6128113   0.0891542  60.9749317
   1.0455887   0.6685781  60.3478765   0.6930154   0.5420350  61.8143940
  21.9204983  20.0307534   2.5010027  22.7260098  20.1905844   2.9927792
  22.1716914  19.3965695   1.8294777  53.1619835  48.3538437  50.6178188
  52.3631239  48.3603287  50.0905514  53.4937286  47.4594355  50.5389977
  20.1105492  38.9873742  49.6801472  19.2208569  38.7409448  49.4272614
  20.3407900  39.6991967  49.0830469  12.5318051  50.4146099  42.7991915
  12.1991063  50.3751230  43.6958408  12.8178120  51.3214779  42.6895618
  37.7374062   7.1256039   2.9412378  38.5842833   6.6992352   3.0725254
  37.1232829   6.4031623   2.8102221  80.0219154  77.3299646  51.3025045
  79.2114735  76.8627501  51.0997200  80.2666569  77.7532911  50.4796267
  65.1981847  14.5144414  65.3343153  65.0567858  15.4609345  65.3146029
  64.8014228  14.2300939  66.1576986  85.3424780  16.7307900  58.9984560
  85.2402632  16.6731786  58.0484772  84.4480078  16.8023252  59.3316889
   0.5452061  74.6523666  19.2507195  -0.3988933  74.6481276  19.0929556
   0.8641148  73.8610363  18.8167536  15.7812779   9.2702531  46.4233446
  15.5129807   8.6203145  45.7738638  15.9136765   8.7660932  47.2261667
  39.3238592  47.2634840  69.9922562  38.3885360  47.0781898  69.9081993
  39.4348049  48.1240702  69.5881367  50.9137902  36.2748406  16.0081257
  50.4229865  36.8242047  15.3969349  50.2641568  35.6637356  16.3556256
  40.1757989  26.8005345   1.5649904  39.6540484  27.5476859   1.8578686
  40.4398093  26.3611672   2.3733725  42.8744411  60.7436037  32.8168869
  42.1200180  61.2302256  33.1489635  42.5415325  60.2812529  32.0477057
  47.2693491  76.2267256  46.8736029  47.6738214  75.6304789  46.2434196
  47.9618883  76.4100599  47.5084305  28.4153843  44.2662525  55.3317404
  28.7302113  43.4586143  54.9257374  28.6368847  44.9527597  54.7025537
  65.1771927  75.3103161  69.5579529  65.6665182  75.9249496  69.0111303
  65.3634453  75.5872011  70.4551029  48.4742546  55.6894732  63.8226652
  49.2094469  56.2643433  64.0353775  47.6995468  56.1793947  64.0984154
  71.1559057  54.1729355  50.7320738  70.2184439  54.3520641  50.8049917
  71.2393951  53.6562634  49.9306297  70.8646345  76.1651707  65.8529520
  70.3021288  75.8312845  65.1541376  71.7313814  75.8121920  65.6519890
  81.7205238  51.9977760  56.2537527  81.2223625  52.2093916  55.4642725
  81.8738461  52.8439140  56.6741991  45.2661848  42.5105190  60.3368616
  44.4924498  42.4034691  59.7835875  45.9994888  42.2630453  59.7736120
  46.2676096  68.2318020  37.1531820  45.6883574  67.9528761  36.4440250
  46.9691610  68.7128210  36.7142344   3.5689482  25.5046675   5.4234566
   3.6815986  25.0110457   6.2357868   3.9078102  26.3770507   5.6243481
  52.9122734  57.8928661  15.9888804  52.3209286  57.9674196  16.7378688
  53.5838079  58.5564089  16.1469376  84.8496572  66.8104743  27.9506649
  83.9920895  66.8331932  27.5260510  85.4372589  67.2365616  27.3266377
  62.0874500  62.3781443  61.3724852  61.3155985  61.9478703  61.7403698
  61.7341566  63.0051613  60.7414055  55.8137560  70.3236485  62.6589203
  55.9914160  71.2270021  62.3969698  55.5136108  70.3917122  63.5652924
   5.8123073  47.0332215   5.2774586   5.1364836  46.4110634   5.0083651
   5.6942711  47.7824662   4.6935715  66.2267320   5.3492974  28.5177231
  65.4432456   5.4398202  27.9753351  65.9652917   4.7517823  29.2183375
  66.6599655  58.7159252  32.8267598  66.1253405  59.1158152  32.1408319
  66.5518427  59.2937803  33.5821533  62.5666094  78.1358385  63.4458065
  62.9936266  78.7492895  62.8478336  61.9516087  77.6524591  62.8941298
  72.3477063  31.0439942  24.4851078  71.5868268  31.6215012  24.4236340
  72.4125943  30.6403802  23.6195912  45.2553129  70.5775023  59.1450024
  44.9596643  71.4878130  59.1575527  44.5299149  70.0847721  59.5287228
  18.5182891  55.3953431  13.2125248  18.0035672  55.0531457  13.9434113
  19.0459904  54.6513913  12.9221691  42.2049889  35.7454369  14.3220009
  42.1375832  36.5838454  13.8650955  41.7650590  35.1217864  13.7442745
  78.8732529  57.2308397  68.5037708  78.6732531  58.1648445  68.5659170
  79.0043783  57.0756912  67.5683784   5.5847972   9.1592073  62.2681236
   5.0552075   9.9391698  62.1025181   6.3145440   9.4740342  62.8015900
  80.2546875   2.5300740  43.5232687  80.6492178   1.6871213  43.7468958
  79.4948904   2.3041009  42.9867315  83.3566380  72.3305321  37.3284721
  83.1399918  71.8672800  36.5193367  83.7285900  71.6569710  37.8978515
  51.7439795  13.0524433  63.1316471  50.9386110  13.5260296  63.3398056
  52.3729515  13.7375152  62.9051447  80.2985940  14.2267010   8.8453306
  80.9721741  13.8487408   9.4107117  80.4245648  13.7943194   8.0006947
  73.2356501  78.5525799  21.6515636  72.6267958  78.8518143  22.3268318
  73.9912939  79.1340876  21.7356896   2.5344460  80.5482339   6.9422926
   2.2610848  81.4271568   7.2049727   1.9919722  79.9612568   7.4689926
  42.0358309  39.2603943  23.0877365  41.2766728  39.6478245  22.6520695
  42.6342950  39.0390084  22.3742451  44.5245299  32.0849106   5.5177750
  43.8005862  31.6219208   5.0961317  45.0985274  32.3402617   4.7955860
  75.1922226  65.8202124  47.6666641  75.4679298  64.9875212  48.0498552
  75.5552673  65.8082056  46.7810631  33.8173907  78.0547498  12.9696049
  33.2044833  78.7243103  13.2733692  34.5925181  78.1727933  13.5186638
  15.2010251  52.1436596  56.6072130  16.0699940  52.0573711  56.2151814
  15.0551892  53.0881643  56.6608667  48.9613152  68.2237053  62.2701073
  49.1149282  69.0430307  62.7405739  48.3204031  67.7563858  62.8059101
  78.5129492   6.9178056  42.3819828  77.7549116   6.5932988  41.8958759
  78.2384102   7.7740621  42.7101183  81.6254902  76.7852831  55.0462246
  82.3077774  76.5785456  55.6849623  80.8479118  76.9629574  55.5754042
   2.2499657  48.5777617  70.6028700   2.0883179  48.0804634  71.4046144
   1.5407181  48.3199692  70.0140190  82.0829391  56.4153624  14.8038840
  82.5704288  57.1065331  14.3557024  81.1808014  56.7345476  14.8264062
  13.1295149  12.9582452  53.3406210  12.6806634  12.3641252  52.7391386
  13.0869477  12.5172662  54.1891241  16.0335002  30.6937573  15.8778347
  15.2517352  30.1430724  15.8351292  15.7060275  31.5845893  15.7537235
  79.7022430  24.4475507  60.8076191  79.2185633  23.8602780  60.2267551
  79.7166340  23.9930009  61.6498852  54.5466964  31.9423627  60.8272076
  54.8733131  31.3272142  61.4838219  54.1528050  32.6502179  61.3371325
  19.2092610  25.4371715  31.5949130  18.4810734  25.2642751  32.1916366
  19.8551179  25.8962607  32.1318793  58.2977343  78.7146330  49.2584515
  57.6656485  78.7503624  49.9763870  57.7975845  78.9772224  48.4857130
   3.8017464  58.3282995  52.6173353   3.7152959  57.4038363  52.3846817
   3.4115410  58.3934307  53.4889555  53.8958645  28.4508514  58.1055069
  53.7605333  29.1412520  57.4564552  53.4226799  28.7543607  58.8802385
  23.7559509  61.3773298  44.7114897  24.6135235  61.6214943  44.3633747
  23.6889505  60.4370165  44.5454836  68.9585590  56.4259100  70.3556633
  69.7114229  55.8457279  70.4688931  68.2176399  55.8341312  70.2250195
   4.7604943  57.4138403  23.5014725   4.1780568  56.8866205  22.9546261
   4.2048741  58.1197739  23.8318920  77.9300873  16.9477319  55.0945520
  77.0161764  17.1606206  54.9056673  78.0804865  17.2961568  55.9733105
   4.9001591  19.0623902  50.8658886   4.1505616  19.2731523  51.4225817
   4.5435660  19.0524816  49.9776459  76.0350561  47.5408649  59.7860909
  76.9246149  47.8613615  59.6371031  75.9459686  47.5156879  60.7388020
  47.0645142  60.8130598  27.2355580  47.6324940  60.2742672  27.7863121
  46.3063097  60.2567625  27.0569944  52.1094403  15.8271191  13.9197125
  52.4330601  15.6875060  13.0297627  51.2187943  15.4766057  13.9084305
  63.6697626  61.3366270  59.1784668  63.5233641  61.7290497  60.0391674
  62.7907085  61.1638451  58.8413620  12.9206269  70.2929615   3.0308689
  13.2973807  69.4388746   3.2425799  13.5475199  70.9250878   3.3825173
  83.9893913  47.6322603  45.3641987  83.7951756  48.2801819  46.0414791
  83.8781738  48.1064463  44.5401764  63.3904171  74.4120073  37.6133275
  63.2344389  73.4687233  37.5673175  62.5187683  74.7942162  37.7152109
  26.9093213  17.0353100  14.3418564  26.2722478  17.5264237  14.8606743
  26.4007554  16.3282511  13.9447846  60.1245785  23.6056900  65.4805756
  60.1688528  24.5540833  65.6023264  60.5088663  23.4569240  64.6166182
  37.9784093  39.7828744  13.1059326  37.6273331  40.6331799  12.8414311
  37.2041878  39.2497323  13.2864060  33.6648545  59.2256806  10.3041424
  33.7257275  60.1650212  10.1304211  33.7456259  59.1522572  11.2550987
  73.6112881  59.7684908  21.3946366  73.2558632  59.9251461  20.5197859
  72.8573751  59.4861126  21.9124246  30.4947075  44.7006295   4.4090523
  31.1160788  45.3313134   4.0452255  29.7629771  45.2355454   4.7167315
  56.8860817  75.1394939  48.0903816  57.1197748  74.2136097  48.0244112
  57.1994305  75.5245113  47.2719574  40.5487523  40.6333611  12.1166290
  39.6953902  40.2475903  12.3145832  40.3530154  41.3523076  11.5157761
  27.6958022  23.3706544   5.7202639  26.8459258  23.0491326   6.0212101
  28.3348021  22.8420565   6.1982693  31.5377307  52.2653484  66.5764952
  31.7451429  52.1243143  65.6527424  30.8435011  51.6339493  66.7651987
  39.1853890  33.8551495   8.4978451  40.1088652  33.6298916   8.6104645
  38.7172398  33.0370734   8.6646475  84.5074940  65.7005024  51.2968349
  84.4760609  66.6094637  51.5952206  83.8726139  65.2448654  51.8495989
  30.8129677  42.0982335  22.5386681  31.1060462  42.3594639  23.4116425
  31.5458092  41.5978787  22.1797432  50.4428134  33.3374999  18.9388050
  50.0928530  32.8866933  18.1703438  51.0325608  34.0004180  18.5796799
  47.2051811  74.3218374  50.2120209  47.8314447  73.5981464  50.2290726
  46.7666388  74.2391777  49.3652153  72.7957439  68.8108873  39.3372273
  72.1626854  69.1877127  39.9483538  73.5024786  68.4855175  39.8948050
  12.9710580  69.9643850  39.3443418  12.4721432  70.6219244  39.8290682
  12.3443604  69.6017504  38.7182570  27.2887835  38.6123727  28.1431450
  28.0444321  38.1507275  28.5066284  27.6142821  39.0034030  27.3323597
  51.8215227  68.5794353  17.9079843  51.8438053  69.3206835  17.3027682
  52.6971531  68.5590839  18.2941055   2.8267670  55.0151968  52.5774145
   3.3650685  55.1479340  53.3576965   2.2206402  54.3154716  52.8207874
  75.1941204  62.7127695  14.4745278  75.5381870  61.8610001  14.2055821
  74.2532921  62.5694656  14.5772099  33.6083731  23.0173943   2.9132141
  33.3652291  22.2201941   3.3839478  32.8602919  23.6027930   3.0311741
  85.9763662   0.7328366  11.3156831  85.6834070   0.0487184  10.7137001
  85.2861254   0.7815599  11.9770646  65.7271814  55.4740810  34.8975253
  65.1484823  54.7416592  34.6856284  65.8655643  55.9195757  34.0616941
   5.7927991  69.4220781  53.3808470   5.8950616  70.1946545  53.9366388
   4.8481656  69.2699194  53.3536673  19.1028683  10.1057672  63.9103222
  18.4730475  10.6779813  64.3486500  18.6847108   9.8816918  63.0789614
  43.5879326  79.0952921  64.2137051  44.2519665  79.1129827  63.5245180
  43.9460611  78.5045290  64.8762560  70.8523607  57.6877737  68.8698578
  70.0894976  57.2180414  69.2069387  71.3837051  57.0114517  68.4497595
  59.6503210  61.6695881  62.5947475  59.4342422  61.9522762  63.4833574
  58.8026571  61.4919901  62.1871281  71.2265968  45.4641533  49.3203831
  70.7898664  44.7457266  49.7779465  71.8679428  45.7941818  49.9496603
  33.7906497  10.5081414  22.0937610  33.9207118  10.2497243  21.1813259
  34.4392245  10.0003194  22.5812960  19.9784407  21.0459540  12.8597225
  19.4184003  20.8425973  13.6088719  20.2300248  21.9602702  12.9899658
  47.4226141  65.5961609  67.8798437  48.0491400  65.3732252  68.5683203
  46.6037989  65.1867533  68.1594086  59.8419175  32.5092385  18.3652653
  60.3678879  32.3979781  19.1572251  59.2289052  31.7742274  18.3796467
  64.4418812  52.7686453  54.6026993  64.6409178  52.2456217  53.8261271
  63.5981894  53.1762791  54.4071341  69.9564640   4.2800283  54.4559526
  70.6292669   4.3396997  55.1341915  70.4433434   4.1071080  53.6501694
  79.0312004  68.0681324  43.4715414  79.0460491  67.9629326  42.5202560
  79.9284458  68.3113241  43.6996508   3.7681389  50.6234121  61.1362696
   4.1522122  50.1890278  60.3746700   4.5181847  50.8512592  61.6855860
  14.7453818   9.7642920   5.1909317  15.6454119   9.5594618   4.9375071
  14.7690043   9.8044751   6.1469950   7.0680333  75.1231956  64.6432066
   6.2484837  75.1208305  64.1486645   7.1957303  76.0389614  64.8907900
  41.2545013  54.1550493  55.8119440  41.4772654  53.5166597  55.1344013
  42.0267677  54.1842222  56.3767338  -0.2174003   3.4367703  37.4010801
   0.6811564   3.5865830  37.6949883  -0.1843984   2.5930738  36.9501734
  84.6616062  40.8123181  47.3242439  84.1086992  40.1674435  46.8830361
  85.4927668  40.7792351  46.8506302  24.9981198  19.8071501  15.0709690
  25.1489720  20.7353470  15.2496494  24.0458235  19.7117636  15.0873818
  58.9593315  55.2028084  42.8589821  59.3237782  55.4915667  43.6956596
  58.0945396  54.8576069  43.0807972   3.6426013  22.1486043  60.3568268
   3.4267705  21.5354013  59.6542358   2.9381077  22.0387315  60.9954500
   8.6832914  42.9773972  11.0368981   9.2223653  43.7245534  11.2964977
   8.0274877  42.9028485  11.7301430  86.3292027  55.4355240  56.6238880
  85.6144238  55.9062910  56.1952829  86.0828114  55.4163504  57.5486326
  44.6680340   7.9352353   3.9916577  44.9565634   7.0755551   3.6851706
  44.4806895   8.4246133   3.1906332  70.1102209  70.9361172  70.5668497
  69.3751574  71.4615631  70.8827925  70.6195831  71.5384102  70.0246096
  43.0940247  56.8641901  38.9591765  42.1516609  56.9897461  38.8477325
  43.4201717  57.7234650  39.2265749  85.2540009  11.0827779  57.1158552
  85.8393328  11.4605092  56.4593935  84.6667330  10.5162381  56.6154718
  76.3733006  48.0327988  23.9504790  76.0344791  48.1311941  23.0606771
  76.1568832  47.1319199  24.1909242   0.8287566   1.5792131  41.3831615
   1.4138024   2.3334168  41.4547348   1.3747113   0.8871411  41.0100555
  59.7844315  60.3130531  59.8019075  60.3329849  60.3040361  60.5862761
  58.9159822  60.5599642  60.1198101  68.7476508  10.1581048  50.6247091
  69.6746485   9.9195813  50.6210470  68.5088436  10.1769494  51.5514517
  65.4995155  72.1493483  65.2897263  66.0523319  72.1039772  64.5096159
  65.2812672  73.0774260  65.3749752  80.0586359  21.9109582  37.2113228
  80.6223528  21.6094064  37.9237270  80.3206293  22.8202390  37.0670843
  54.6669102  60.0896263  15.5716729  54.4901228  60.8583260  15.0293863
  55.5969334  59.9089384  15.4351187  18.6243098  25.3715848  66.5412378
  19.1224997  25.7967710  67.2392750  18.5096066  24.4706201  66.8434572
  52.5871055   6.5591954  44.7319365  51.9239704   7.1516847  45.0861216
  53.1117408   7.1079492  44.1489601  80.2257347  40.1736832  43.5399055
  79.7100210  40.2471066  42.7368593  80.8961010  40.8518744  43.4568977
  30.3330121  16.2042735   2.2616686  30.3743682  15.4782937   2.8841461
  30.8708081  15.9177611   1.5234818  17.2593213  47.1813154  36.3747573
  16.8473340  46.7825508  37.1412301  17.5651456  48.0341101  36.6837049
  21.3620894   8.0968331  19.2854047  21.9107525   7.3264264  19.1382098
  20.5254977   7.7413224  19.5853305  57.3027992  45.5185080  69.8282623
  57.0541859  44.5957661  69.8828125  56.8681288  45.8373165  69.0372849
  57.4580288  31.7280626  49.9530506  56.7738390  32.0352626  49.3582869
  58.2317591  32.2371578  49.7114038  60.8870363  70.5730772  71.0414982
  60.4452276  71.1240387  70.3953695  61.8171644  70.7673788  70.9259987
  12.7441598  73.2187176  35.2735329  13.4102250  72.6933241  35.7168818
  13.1711579  74.0600204  35.1119161  28.2039294  30.6528447   1.3194145
  28.1385836  31.5718243   1.5791096  28.0526814  30.1640151   2.1283640
  76.7461729  53.5964537  53.8809490  76.7828274  54.5506668  53.9470434
  75.8922052  53.4162188  53.4878969  70.1919365  38.5205770  58.2416439
  70.1007700  38.9224958  59.1055775  69.4274950  37.9501796  58.1609726
  74.8362589  59.8474407  25.7070494  75.0399590  59.0362835  25.2414775
  73.8872480  59.8215961  25.8292842  70.2230215  32.0390773  32.6241565
  70.2742910  32.4012733  31.7396140  70.7084274  32.6610470  33.1661582
  58.1244755  68.2901621  60.4596043  57.3617697  68.8454342  60.2977848
  58.1504965  68.1903505  61.4112282  28.1574139  17.7051184   6.7646279
  28.8116250  17.0673487   6.4791741  28.5429654  18.1130479   7.5399841
  37.7014956   4.0526793  12.3810257  37.3131022   3.6102746  11.6262688
  37.0323023   4.6759246  12.6638283  77.7249050  68.7533092  28.4495568
  78.5436344  68.7324047  27.9540992  77.8409624  69.4695759  29.0738368
  45.0995526  12.0866320  12.7947392  45.9961972  12.3983262  12.6718678
  44.7977719  12.5314448  13.5867562  85.5231080  34.0877268   6.2709488
  84.8827634  33.5988305   6.7878355  85.9202466  33.4313271   5.6985439
  67.1244049  61.8778753   2.7812088  66.6023397  61.6999149   1.9988969
  67.2273540  61.0233116   3.1999621  60.9879875  27.2780848  69.7689581
  61.2405062  28.0309701  70.3033972  61.6885614  27.1981072  69.1216326
  24.5973429   3.6279318  60.4822506  25.0927195   2.9648564  60.9630551
  25.1872477   4.3802807  60.4351963  80.4323292  72.1150160  57.9379368
  79.8149109  71.5130758  57.5223732  79.9887609  72.3991013  58.7371683
  78.4789467  57.6830578  44.1094208  78.7352991  56.8991899  43.6235476
  77.6747513  57.4311686  44.5633507  59.4734764  72.1916199  57.3058128
  59.9020958  72.0145750  56.4684534  58.6472273  71.7106915  57.2583532
  52.8417397  38.5246325  13.8121426  52.8896523  39.0690374  13.0262935
  52.2392035  38.9918685  14.3908250  17.2953353  17.1655820   5.2542509
  17.9663787  17.7600882   5.5896582  17.7005086  16.2993453   5.2954926
  60.5117702  48.6075115  47.9189539  60.5658436  47.9479837  47.2273445
  59.5947838  48.8820314  47.9169655  51.1549990   0.4260015  55.8237934
  50.6169074   1.0031747  55.2819824  50.5395930   0.0404023  56.4473438
  27.1547454  12.8923368  67.6280403  27.0242541  13.0908536  68.5552931
  26.4694064  13.3867501  67.1784925  75.9433746  59.5726871  39.8800492
  75.0448990  59.5649052  39.5500255  76.3447428  58.7909985  39.5004511
  82.3966798   8.2077525  21.6477551  81.7138061   8.2053921  20.9769978
  82.1235665   8.8862822  22.2652115  68.1215954  50.9598780  33.3279610
  68.3121395  51.7525005  33.8296247  67.1802807  51.0033417  33.1598210
  34.6239352  57.9645967  64.6775389  33.9665294  57.3140526  64.4308758
  34.1451812  58.7932253  64.6975708  34.1385302   2.4278376   3.9571156
  34.9892649   1.9894335   3.9738812  34.2583499   3.2042143   4.5040287
  65.4674101  48.3085251  32.8413534  65.7745457  48.3799696  31.9375873
  65.2879858  49.2109251  33.1053877   9.4201605  15.8355283  67.7680445
  10.2875130  15.4477452  67.6516294   8.8844435  15.1235246  68.1177378
  23.1279931  41.8994496   6.3779034  23.9937672  41.5220997   6.5337052
  23.1808457  42.2633717   5.4941620   5.5964272   7.3352479  41.8310833
   6.2227051   7.9838800  41.5097094   4.7617428   7.5942658  41.4406395
  71.2015971   8.0183003   3.0911030  70.9080430   7.9946110   4.0018715
  71.9762000   7.4562142   3.0744280  53.7487030  51.7423916  65.7455492
  52.9204893  51.5176964  66.1695814  53.5741329  52.5737810  65.3044653
  29.2918763   6.6640923   3.2080998  29.3660388   5.7653592   2.8871454
  29.9764809   7.1426270   2.7406038  72.6411486  67.6620102  55.3702879
  73.1068945  66.9334793  54.9597359  73.2526064  67.9984188  56.0254097
  48.1509909  30.5422900   0.6186928  47.2188029  30.4895423   0.8295788
  48.4025607  31.4320729   0.8661284  72.5347695   2.4778054   2.8742422
  72.6497254   1.6057942   2.4965920  71.7200074   2.8001759   2.4889197
  82.4283886   9.9195737  46.6931534  81.9727039  10.7346463  46.9034719
  83.1722546   9.8988193  47.2952127  73.1047535  42.5396442  70.0615883
  72.2799921  42.1006489  69.8535442  73.5135174  41.9807243  70.7224560
  83.5094587  12.7388810  28.8934112  82.9912416  12.3011445  29.5687437
  82.8608028  13.0844544  28.2801795  29.3464646  25.7131932   5.1102795
  28.8716206  24.9549077   5.4505123  29.7535214  26.1068843   5.8819927
  43.5723877  73.6951208  42.1340322  42.7133369  73.9153051  42.4942780
  44.1908550  73.9417124  42.8217268  70.7592773  64.6260929  39.7028351
  71.5356588  65.1516819  39.5099020  70.2354717  64.6699858  38.9028764
  86.2277699  78.2987261  48.0654192  86.6513920  78.4022093  48.9175129
  86.2867641  79.1646910  47.6618671  84.1667501  13.6978578  45.5548096
  84.4236366  12.8140401  45.2919292  83.9317266  13.6140775  46.4789200
  59.9381065  73.2079172  49.3844557  59.3386507  73.7186575  49.9285412
  59.3660116  72.6601601  48.8469553  70.0194017  78.5089634  17.2921909
  69.5528643  78.2966755  18.1005921  70.7010071  77.8401540  17.2263207
  77.2397137  80.9478760  53.6218691  76.7996216  80.4192257  54.2875051
  77.9245520  80.3756523  53.2757664   6.3699525   7.9395722  27.1013188
   7.1101325   7.3356294  27.1614885   6.1875575   8.1859731  28.0080962
   2.7134555  23.8859223  56.2008667   3.4992879  23.7095975  55.6835651
   2.0907967  23.2121419  55.9278393  40.7644129  69.1696978  26.4387608
  40.9780884  69.1975832  27.3713875  39.8590922  68.8602161  26.4096117
  48.6680508  79.3984556  65.8803082  48.8507557  80.1342964  65.2960205
  49.3783760  79.4197130  66.5215731  33.9506571  28.9505433  60.7138395
  33.6995547  29.6828412  61.2767935  34.2885726  29.3640374  59.9194384
   3.0557156  73.5798883  34.5427632   2.6090432  74.4064379  34.3596268
   2.3479748  72.9548883  34.6999645  61.0134268  52.6444006  59.0363073
  61.4889431  52.1268654  59.6861315  61.5096617  53.4602451  58.9701319
  22.7001517   9.7963189  57.1589375  23.3205168  10.1436757  57.7998114
  21.9184916   9.5881318  57.6706982   3.0104924  77.7088213  60.7416725
   3.2813168  77.3839045  59.8829985   2.6244164  76.9476032  61.1749363
   3.5208409  14.5918416  69.8709059   4.3548815  14.6303796  69.4027948
   2.8887742  14.3067693  69.2110157  63.2552895   7.8309844   4.9656929
  63.1607804   8.2318089   5.8297743  63.7381539   7.0207999   5.1290049
  58.4064579  77.7304840  44.3639088  58.4291935  76.9152451  43.8628101
  59.3248320  77.9882574  44.4437218  40.5772719  38.3966515   5.6878103
  39.8957762  38.8506816   5.1921810  40.5311904  37.4902985   5.3834643
  76.0648346  66.0087872  27.0509195  75.9357023  65.4966068  26.2526536
  75.1951694  66.3495731  27.2601485  19.9598401   2.3378610  29.7242689
  20.2599852   2.4712228  28.8251829  20.4849332   1.6049909  30.0458479
  71.4562408  18.1799268  42.6772118  71.5574638  18.5443353  41.7979002
  72.3116343  18.3049153  43.0882072  15.6552565  62.0465851  52.3564959
  16.0029864  62.9335642  52.2638559  15.8036244  61.6407394  51.5023851
  10.0616646  75.5681133  45.6170416   9.9455071  76.4878321  45.8554840
  10.4186440  75.5940866  44.7292757  77.9235165  13.3706903  23.0708623
  78.3348124  13.8104104  23.8149834  77.8290073  14.0564488  22.4097729
  35.4974351  24.9529812   2.9079498  34.8977980  24.2072413   2.9311337
  35.3850207  25.3235886   2.0325913  70.6322050  79.6028996  63.3003235
  71.2905502  78.9699316  63.0136824  70.1106215  79.7773695  62.5169039
  40.8826583   9.2517423  49.4738770  40.6788962   9.4365930  50.3906870
  41.8390219   9.2289495  49.4409704  59.2954016  78.3315420  63.4735775
  59.9319553  77.6180220  63.4296751  59.0003061  78.4451723  62.5701189
  17.2194855  13.3841561  47.5661564  18.0379622  12.9346036  47.3558331
  16.5501874  12.7022313  47.5091553  60.1459169  41.8167782  60.3394794
  60.3792763  42.3053741  59.5501471  60.6501055  41.0055447  60.2768373
  72.5785160  80.6171227  69.2178965  72.2778416  80.3381348  68.3530331
  72.0183992  80.1413345  69.8311901  69.9153320   7.3232793  59.4060946
  69.4129936   7.5454473  60.1900148  69.3511145   6.7193364  58.9232492
  64.7220325  63.7991524  63.3739328  65.0892735  63.6159849  62.5091696
  63.8000345  63.5529137  63.2996559  67.0866189   6.2942622   2.2686161
  67.2259984   5.3474400   2.2503628  67.9601273   6.6672776   2.1499886
  74.7808027  58.2891321  68.8499832  74.3812990  59.1542912  68.7597942
  75.6504011  58.3852148  68.4616613  46.6649954  16.3531636  43.9124155
  46.4387934  16.2180184  42.9921961  45.8266966  16.5207624  44.3429995
  67.7667427  64.0537071  19.0027654  67.3624039  63.1870031  18.9632142
  67.0525503  64.6400213  19.2525685  28.1292670  28.0857705  39.6800303
  27.7226775  27.7834939  38.8679051  28.8573306  27.4810170  39.8229194
  47.4235487  51.9481897   9.3297017  47.0467234  51.1656952   9.7321153
  47.2855043  52.6402426   9.9764180  56.2451825  72.9982636  11.0389294
  55.8431706  73.1662438  11.8912186  56.0601983  72.0754311  10.8645691
   0.2817576   5.3390168  65.1229811   1.0858338   4.8405313  65.2686119
   0.2404206   5.4549264  64.1737270   4.0433026  64.8979187  66.9073772
   4.7889710  64.7032166  66.3396692   3.3486844  64.3163633  66.5982914
  31.1662429  15.2697801  51.7014980  31.5564196  14.8925923  50.9130049
  30.3450244  15.6582974  51.4000273   5.2269499   0.5520295   7.0691299
   5.7435029   1.3430738   6.9153565   5.8779137  -0.1361514   7.2065943
  49.0016406   9.3690061  27.7031183  48.1012194   9.6138619  27.4897695
  49.2029708   9.8646306  28.4968758  72.5992250  32.0650816  45.7672358
  73.0155230  32.3449993  44.9520206  72.1052170  32.8311849  46.0592508
  78.8589565  22.9087400  58.6228991  78.8156168  22.8378533  57.6693106
  78.0266230  22.5476598  58.9279890   4.0344565  -0.0946284  59.3805552
   3.3934920   0.6107854  59.2922878   4.3485444  -0.0214625  60.2817917
   0.3160954  78.6553669  17.4766779   0.9048272  77.9026222  17.5315654
   0.5804063  79.2196321  18.2033014  24.5941815  51.8329213   3.9784016
  23.6883053  52.0480607   3.7562861  24.5268139  51.3050435   4.7740378
  10.3632165  78.0506802  59.8475933   9.6446515  78.3125591  60.4231930
   9.9335862  77.7794075  59.0363836  10.6479590  44.1591310  46.0515451
  10.2291529  45.0103616  45.9241056  11.5832036  44.3343591  45.9474039
  83.0787563  42.1722746  39.5571637  82.5820065  42.3102760  40.3636551
  82.4754810  42.4245834  38.8581419  71.9439547  18.6120557  39.8116612
  71.3639442  19.1058206  39.2319965  72.7508442  19.1263246  39.8378539
  44.3356745   4.0142583  70.1222754  43.6866801   3.6122178  70.6996918
  45.0483840   3.3765458  70.0822735  64.5378494  73.6992550  53.4440088
  64.8108768  73.3769178  52.5850630  64.3518782  74.6276331  53.3034134
  17.8382683  75.6176186   8.9781588  17.4832535  75.8971453   9.8219955
  18.4947110  74.9576616   9.2012614  70.3933477  44.0285254  40.0649023
  71.0524178  43.8649273  39.3902969  70.4636574  44.9657774  40.2461386
  56.5187645  80.5586529  63.0024481  55.9892559  79.8455667  62.6455688
  57.4013376  80.3898811  62.6725864  81.5951101   8.9935540  59.3860245
  81.1742918   9.6725892  58.8587093  82.2785608   9.4560861  59.8709917
  85.4646580   7.2392034  49.2127562  86.3923065   7.0371007  49.0908957
  85.0041334   6.5343808  48.7573719  68.3827925  51.6360664  28.0392194
  68.5089111  52.5710583  27.8776073  69.2651272  51.2663364  28.0072832
  34.1762910  51.9500611  15.6557621  34.4265494  51.0262559  15.6421436
  33.2365403  51.9463322  15.4738774   8.7501662  16.0505914  36.6816902
   7.8408854  16.3438939  36.6232204   9.0879004  16.1382722  35.7903552
  51.1740828  73.3512545  32.9803872  50.9852886  72.6356554  32.3733401
  51.0636663  74.1449213  32.4568057   8.9178078  15.1991986  62.3226833
   9.6103041  15.2363824  61.6629124   8.8989728  16.0786962  62.6999712
  24.5213931  12.6142072  26.2171817  23.9810507  11.9349240  25.8136559
  24.3639128  12.5189637  27.1565223  60.7783262  11.1307668  64.6786499
  60.2031486  11.8052529  64.3174505  61.2582247  10.7947301  63.9216757
  75.7669537  33.1595658  69.6420813  75.4349510  33.7083100  68.9315319
  76.1379520  33.7794065  70.2700806  67.2616148  72.3620939  57.4681282
  67.7649975  73.1715727  57.3810387  66.9095707  72.3934984  58.3576822
  81.3745403  80.0474262  38.7595940  81.3993549  80.3326321  37.8462100
  82.2083759  79.5965528  38.8924623  66.1810112  66.6671801  25.2632141
  65.9836292  67.1088696  26.0891581  66.1471510  67.3621702  24.6058893
  27.4915585  57.0298550   3.3451904  28.2783827  57.1032212   2.8050388
  27.3143849  56.0899899   3.3838715  23.8572344  43.2141373  28.9278282
  23.5996613  44.1359875  28.9362492  23.8530621  42.9727433  28.0015721
  24.7205966   3.2234716  16.6799247  24.8893397   2.3521661  16.3213265
  23.8798373   3.4797620  16.3008821   3.0750275  55.6568527  64.1461277
   3.4810162  55.1008129  64.8111296   2.5664330  55.0519514  63.6060810
  75.1900841   1.0533640  17.6263298  75.2018191   0.5275652  16.8265595
  76.0159470   0.8441183  18.0626740  73.6249256  67.6216316  25.1057053
  74.2755222  67.1155643  24.6190310  73.3070040  67.0192099  25.7782006
  12.4041638  58.6547158   1.9019808  12.9493270  59.1109727   1.2609972
  12.9869542  58.5003827   2.6454653  32.7729783  39.0795062   1.0868229
  32.5737605  39.9521706   1.4259495  33.6397252  39.1686509   0.6905522
  31.5984139  33.6579058   3.9922346  31.9801507  33.2739279   3.2028927
  31.3596234  32.9052851   4.5333161  45.9600394   8.3467626  47.8448057
  45.2674525   7.7283429  48.0774212  46.6219943   7.8115129  47.4071503
  43.6065524  28.5811757  69.2072058  43.7298720  27.6420640  69.0690374
  42.8300231  28.6414670  69.7636223  34.3991416   5.4762315  52.4144506
  34.3599265   6.1008882  53.1386757  33.4987300   5.1666783  52.3161268
   9.3078995  20.3352594  67.6161242   9.2133904  19.5631933  67.0582581
   8.4557248  20.7688832  67.5713396  70.7675886  57.1590614  41.1268377
  70.8148623  57.7322197  40.3616667  70.0361538  56.5704536  40.9403658
  29.3347153  30.5152962  19.0771164  29.6477351  29.6425507  19.3149532
  28.3855328  30.4170869  19.0020146  75.5392218  58.4366179  60.1690149
  76.4058208  58.8353491  60.2481079  75.6952143  57.6149750  59.7033930
  66.7428017  24.8893905  35.1316214  66.0515451  25.4604840  34.7965884
  67.3728657  25.4868913  35.5344176  74.6425104  78.4475756  61.0183239
  75.4015493  77.8665304  60.9685850  74.5756340  78.8296843  60.1432514
   3.8811812  31.3375685  47.3951782   4.6094331  31.6966221  47.9020943
   3.0998168  31.7196725  47.7948059  68.1806755  81.4027691  47.4608421
  68.7982416  80.6859303  47.3159552  67.3654938  81.1013603  47.0597696
  29.6469531  40.3457902   4.2676176  30.5460057  40.2208398   4.5714678
  29.6653447  41.1822674   3.8026489  68.1435148  24.0735864  28.6353922
  67.8528468  24.7214078  29.2773247  68.7463181  24.5531892  28.0672002
  55.7484579  64.4997740  30.8023357  56.1463881  63.7221241  31.1936760
  55.1542044  64.1550732  30.1357937  86.7575550  76.5834284  26.1414266
  86.0132122  76.6600466  26.7383480  86.4974499  77.0848179  25.3686500
  18.8220009  49.7864125   2.8467526  18.1959805  49.5113728   2.1769203
  18.2813201  49.9957631   3.6083712  24.1940770  25.2684090   5.5217852
  24.6621260  24.4755194   5.2600826  24.0114340  25.1424048   6.4529146
  71.9898272  37.5318384  29.6114874  71.0667658  37.6188707  29.3735600
  72.4487400  38.1168628  29.0086770  27.7190098  66.0098717  32.2972740
  27.8970847  66.3794587  33.1621041  27.4398360  66.7582677  31.7698349
  37.8819609  75.3208303  58.4273386  37.5608015  76.0105324  57.8464794
  37.0927453  74.8583174  58.7092113  71.8727765  33.5232947   1.5595068
  72.2891602  33.5602114   0.6984057  72.4533352  34.0290806   2.1281590
  64.4238186  44.1912842  61.5688419  64.3163681  44.6382475  60.7292557
  65.3113794  44.4160938  61.8479967   9.0442810  41.8116543   2.2116341
   9.8902473  42.1111367   2.5446285   8.4005103  42.2249386   2.7869476
  78.7828541  68.1259441  67.8562260  79.0638208  68.7044525  68.5651827
  79.5984793  67.8101492  67.4672985  49.1791248  70.1801777  43.7059593
  48.9478064  69.3294096  44.0786791  49.9902248  70.4244041  44.1517258
   8.8625472  11.0023450  42.5708389   9.7398751  10.6476544  42.4268961
   9.0012162  11.7623471  43.1359959  20.2618735   2.4888658  61.2625551
  21.1740821   2.7661466  61.3475847  19.8898356   3.0852460  60.6128263
  20.8000319  12.4997472  63.4305573  21.0460751  12.6543855  64.3425798
  20.6810706  11.5517663  63.3720160  26.5506682  43.2571480   3.8141121
  27.0486006  42.9797146   3.0451359  26.8555674  44.1475937   3.9884152
  60.1484489  33.1675339  49.5112467  60.3941154  32.3740268  49.0356159
  60.2880049  33.8761783  48.8830900  38.1173930  32.9763053   5.1733793
  38.8687405  33.0855391   5.7562842  38.4697232  33.1310103   4.2969336
  32.5394616  25.1127598   5.4362072  32.9147181  24.2873452   5.7429899
  32.1604857  24.9011395   4.5830836  34.7141974  13.3938169  53.4254217
  34.1003649  13.5559033  54.1417885  34.9623530  14.2665814  53.1205606
  84.0567486  21.3469552  53.2420969  83.3414213  20.8155965  52.8925228
  84.0095274  21.2187051  54.1894913  39.1535418   6.9099664  67.3972988
  39.0087454   6.4105271  66.5936613  40.0407546   7.2576284  67.3066521
  55.0322533  77.3916101  43.7243032  55.6909847  77.9989290  43.3874512
  54.2847013  77.9472733  43.9448452  62.2683048  72.4134779  50.4562998
  61.4326382  72.6469040  50.0520658  62.0419598  71.7503977  51.1084700
  52.1125493  66.2415860  20.8867325  52.3086056  65.6057046  21.5748085
  52.9705796  66.5325711  20.5779709  20.3304093  12.1060990  55.0632286
  20.2941840  13.0609750  55.1191425  20.3112118  11.9202470  54.1244364
  28.9787755  18.0753825   9.5142235  29.0230736  19.0306971   9.4736733
  28.5005602  17.8918955  10.3228535  25.0106948  21.6166829  17.7287960
  24.6456187  20.8272313  18.1284404  25.9308665  21.6150331  17.9924619
  59.0732145  60.1275015  44.4654989  59.1348410  60.7996178  43.7867546
  59.8753309  59.6143484  44.3679571   7.3385565   5.7509946  12.4181533
   7.6209967   4.8415708  12.3211575   7.1108573   5.8336019  13.3441997
  85.1473141  57.2601652  43.1803560  85.0931454  57.7368593  42.3520708
  84.2657566  56.9121981  43.3145380  30.2551596   6.0720491  32.9773927
  30.7718508   5.5314492  33.5748982  30.7971709   6.1460160  32.1919107
  82.0143470  43.3179829   3.7998928  81.7280420  42.4309228   3.5822214
  81.4040288  43.8881562   3.3322968  45.2268934  70.4673195  65.5508900
  44.6515846  70.8276987  64.8760748  45.0758791  69.5227909  65.5149651
  26.9837039   5.9037637  46.6725540  26.5315383   5.5025815  47.4147367
  27.7609866   5.3602742  46.5434361   2.8661252  72.9764128  31.2063479
   3.3958340  73.7736273  31.1968970   3.0877782  72.5513840  32.0348716
  24.2089066  44.8871205   2.2379746  25.1122365  45.1474927   2.0578827
  24.1728005  43.9624856   1.9930948  19.0414557  49.1558335   6.0564007
  18.2697997  48.5937188   5.9871115  19.6043667  48.8801167   5.3329767
  52.0939732  71.6252518  69.9209070  51.8113947  70.8092117  69.5080423
  51.5762377  71.6790581  70.7242012  75.7794714  75.4618073  35.4667377
  75.7293844  76.1291790  36.1510873  76.7042589  75.2164125  35.4387236
  10.8080475  12.1111726  47.9963636  10.4508345  12.1167611  48.8843966
  11.3443988  12.9025697  47.9489660   1.3917638  67.3090839  36.5610981
   0.6396866  66.7175007  36.5865707   1.4366341  67.6775646  37.4433899
  33.0004828  18.5397481  31.1856580  33.1790011  19.3969010  31.5725136
  33.4507411  17.9196405  31.7592144   8.0680943  62.6209211  56.2710619
   7.1217919  62.6848602  56.4001703   8.1871033  61.8166208  55.7659245
  32.6658876  29.4636227  66.1576380  33.0145653  30.1669861  65.6099735
  32.4941166  29.8803402  67.0020760  44.5440659  30.6115267   7.6984562
  44.8437914  31.3100312   7.1166577  45.0326476  29.8383925   7.4159874
  56.6805539  62.5744698   3.6302485  56.6572652  62.4921200   4.5836176
  56.8430123  61.6847298   3.3168902  80.6648724  20.4470681  39.6468759
  79.9276821  19.8755502  39.4320655  81.1282293  19.9873780  40.3470325
  62.0599365  53.9710855  54.2446041  61.7272377  53.3510685  53.5956669
  61.2855244  54.2380857  54.7398138  80.4483120  12.0190858  68.3705568
  79.4924204  11.9740724  68.3488083  80.7220642  11.1531018  68.6728048
  23.3529162   5.8570302   9.7752053  23.2299662   6.8036026   9.8467278
  23.8687515   5.7421339   8.9771175  84.5719797  59.5397569  49.7469521
  84.5521171  58.6013080  49.9344397  84.6119578  59.5924307  48.7920380
  27.6620228  67.7423562  13.5795236  27.9018314  66.8160904  13.5520124
  26.7449148  67.7605534  13.3060038   6.5833457  68.1678475  38.3693242
   6.8940385  67.2664727  38.2843328   5.7527168  68.1807245  37.8938031
  52.0793034  80.2907501  38.0880666  51.4094628  80.2960120  37.4043131
  51.7333693  80.8703957  38.7667203  14.1274078  67.8001905  48.6702013
  14.2611988  68.0906225  47.7679920  13.8518055  68.5888971  49.1373348
  53.6158244  18.9292406   5.6564869  53.7398736  18.3237599   4.9255718
  53.9354317  19.7696613   5.3281988  23.4379029   3.0863753  69.1084528
  22.6679730   2.9278991  69.6546412  24.0578079   3.5262942  69.6901941
  25.6724358  52.5829077   0.2528295  26.2685013  53.2120895   0.6591103
  24.7981715  52.9135132   0.4592079  35.3644705  11.7884171  32.8949499
  34.6234345  11.8297160  32.2904730  35.8689070  11.0287607  32.6039267
  40.6661701  19.8341382  33.3779788  41.4061069  19.9138081  33.9799547
  40.3744173  20.7347560  33.2365561  82.5537307  77.1727551  18.0770457
  83.1948836  77.3149739  17.3806787  82.2672136  76.2672938  17.9575479
  77.9186637  58.0389930  56.2779999  77.8583867  58.6497212  57.0125818
  78.6777885  58.3395077  55.7783508  32.6640105  23.9004350  34.6765304
  33.5133314  24.0336132  35.0974202  32.7882957  24.2156219  33.7812972
  78.0203254  62.7467264  56.1739969  78.2013733  62.4737943  55.2745724
  77.2680504  62.2170855  56.4381838  24.5680976  11.4653540  65.0530863
  25.1475811  11.7614365  64.3511152  24.0894389  12.2514427  65.3161049
  68.9823241  58.7976004  29.6161509  68.5415931  59.5161415  30.0696731
  69.9129612  59.0146948  29.6710706  61.0873795   3.7967741  24.4433260
  61.3273287   4.7233698  24.4345236  60.2759647   3.7546673  23.9373040
   7.5601180  74.4562233  35.8578157   8.2798441  74.4131012  35.2282405
   6.7731436  74.5265532  35.3174829  15.2611029  20.9638476  54.1215324
  15.4900002  20.0551319  53.9264059  15.7917678  21.1855030  54.8867083
  66.0562773  75.7444651  48.8207960  65.1404203  75.6335993  48.5655594
  66.2199707  75.0335140  49.4404602  56.5792624  40.5592088   6.6653599
  56.2612502  39.7156669   6.9871344  56.1838595  41.2038799   7.2521223
  48.1615550  80.7255531  59.5355320  47.5805087  80.0673346  59.1542625
  47.8463585  81.5571553  59.1815281  60.3604555  13.8694429  54.4444704
  61.2333250  13.9102638  54.0537500  59.8453760  13.3509171  53.8263655
  33.1389213  10.1076877  57.6650429  32.2288775  10.3248394  57.4628115
  33.1714869   9.1518480  57.6257944  18.1209528  22.3901629  39.9669933
  17.8477454  21.5971279  39.5058155  17.3026717  22.8444171  40.1677418
  22.7643728  18.9809954  67.2966671  23.6101484  19.2266285  66.9217587
  22.8828192  19.0814269  68.2411861  15.5600875  56.3904344  12.7594437
  16.3813393  56.3976012  13.2510914  15.5671446  57.2126304  12.2693600
  40.0881720  20.8803153  36.0724711  40.9609032  20.5185986  35.9184313
  40.0240374  21.6178107  35.4656625  42.5311382  35.9295512  35.1213431
  42.1036585  35.4937507  35.8586144  43.3149107  35.4057790  34.9552298
  48.5654766  66.5407051  19.6827245  48.4699775  66.5951491  18.7318575
  49.1145588  67.2906030  19.9116230  26.4707430  65.1385106  24.7025943
  26.6485413  65.2751995  23.7720394  27.3327787  65.1662446  25.1177478
  63.6917495  14.3083119  19.4477701  63.0295371  13.7966466  18.9831161
  64.4373154  14.3360162  18.8481057  50.9337060  46.8796758   7.0099415
  50.0740497  46.4877002   6.8563952  51.1159842  47.3770975   6.2127127
  65.2640904  75.4616494  57.9806709  65.4291148  74.5576663  58.2486534
  65.1476521  75.9377403  58.8028717  77.2147123  44.3999155  -0.3387771
  77.3623793  44.9951555   0.3961481  77.0633356  43.5476963   0.0699295
   2.7403410  31.9162560  62.0443439   3.2348235  31.4546300  62.7215624
   3.2489522  32.7092648  61.8749952   2.0537537  20.7774138  25.4496574
   2.6840913  21.3340807  25.9068561   1.7063241  20.2003860  26.1297750
  14.1630912   5.6758535  51.9369555  13.3884978   5.2854723  51.5321827
  14.7951996   4.9586880  51.9853830  26.9125612  56.3741280  26.5360069
  27.2057207  56.7711616  25.7158518  27.6796825  56.4105106  27.1073532
  70.8889429  57.4217163   4.2097677  70.4922096  56.6135357   4.5348515
  71.4042370  57.1473120   3.4512152  29.1342282   8.1910855  56.8094730
  28.7662697   8.6198342  56.0368061  29.7629690   7.5611395  56.4572144
  65.8192379  72.4436135  70.0229597  65.9257276  73.3060546  69.6216059
  65.9972001  71.8258012  69.3138313  26.8808889   1.7660922  12.3001528
  26.9967008   2.4427384  12.9672122  27.1335697   0.9529585  12.7374136
   6.0530146  74.0326268  38.7405014   5.3492244  74.5930971  39.0672779
   5.6046732  73.3577282  38.2308602  22.9023719   9.7668117  20.8976221
  22.3462129   9.2468065  20.3175259  23.7411952   9.8213232  20.4397607
  74.2181308  79.6599513  26.4034843  74.7665984  79.6211571  25.6199598
  73.8101454  78.7954874  26.4532971  67.3465110  49.1579629  30.7015109
  67.8400082  49.2198492  31.5193510  67.2983409  50.0589992  30.3820705
  23.0930241  63.6397232  46.3968229  23.2840069  62.9657424  45.7445145
  23.7479694  63.5029591  47.0813465   5.6185182  78.8369242  35.8363461
   6.3495548  78.5956920  35.2674699   5.6450828  78.1948493  36.5457606
   6.0235055  71.4320291  55.2164841   6.3475307  70.8617736  55.9136534
   6.1081560  72.3167379  55.5719471   3.4234889  74.7619511  37.9207492
   3.0662997  73.8759739  37.8599858   3.1975706  75.0511665  38.8048005
  43.9883137   1.2052368  38.8191080  44.4706392   0.4665551  38.4477043
  44.5180416   1.9717452  38.5998249  76.9959703  28.4013345  70.0127948
  77.0396724  29.3522241  70.1134460  77.9108205  28.1214430  69.9820346
   8.8521774  77.4747167  30.8261061   8.0372317  77.5491414  31.3226509
   9.5133074  77.2547696  31.4824295  33.8865113  38.1896353  45.3310919
  33.3300638  38.8136220  45.7971764  34.6062803  38.7197423  44.9888182
  17.8289354   6.3024396  66.9507599  17.5753415   6.2100488  66.0324001
  17.2560751   5.6956303  67.4196386  28.1504223  51.3534592  25.1338638
  27.8665963  51.6095017  26.0114254  28.3276361  50.4153972  25.2036251
  82.2348721  62.1763862  49.7412062  83.0354435  62.3493267  49.2458200
  82.4988134  61.5444089  50.4099131  58.6573310  36.3321067  52.3699093
  58.5618383  35.7858277  53.1501007  58.2025235  35.8474780  51.6810608
  78.9371617  71.5231217  29.1896129  78.7388594  71.6550601  28.2625198
  79.2253406  72.3823995  29.4975495  10.8166988  64.4212795   9.9991721
  11.4432152  63.8120056  10.3896737  10.7517870  64.1449190   9.0850371
  80.6107847  29.8065291   2.6287617  80.1001303  29.2709063   2.0216622
  80.2827637  29.5653807   3.4950651  28.2573421  75.7964111  40.9913158
  28.6273106  76.2550283  41.7456532  28.4282644  76.3776017  40.2502108
  50.5253124  26.0804152  49.2967558  50.4193354  25.1906681  49.6334314
  51.4402103  26.2970638  49.4763422  29.3027075  64.6881295  30.3816819
  28.6479862  65.2552010  30.7891154  28.9747103  63.8007058  30.5270457
  10.0038441  72.3590131  63.1987190   9.6529968  72.7667124  63.9905024
  10.4847749  71.5945900  63.5158825  16.3800526  16.7917359  62.8526974
  16.1004293  15.9315038  62.5395775  16.9667327  17.1162188  62.1695089
  31.7077072  73.2106514  56.2744761  30.7864292  73.3561094  56.0592413
  32.1153076  72.9806138  55.4395056  23.9527893  35.0245762  48.5257578
  23.5505676  35.7819986  48.9509153  24.4134188  35.3903818  47.7706194
  13.4032162  71.8974114  65.4462242  13.5748156  72.5732071  64.7904158
  12.6628502  71.4038135  65.0934458  83.9900715  77.6007659  45.8675098
  84.3035681  76.7432613  46.1549807  84.6090610  78.2226611  46.2500429
  65.4519338  70.2246703  51.8427801  66.3627006  70.4040039  52.0763922
  65.0760980  69.8299480  52.6296568   7.4616321  56.9236184  28.4745789
   8.0593999  57.1071101  27.7498460   6.8288525  56.3036347  28.1120229
  76.7613633  58.3128382  47.5146055  76.0182531  57.8082133  47.1838951
  77.2598345  58.5463262  46.7315102  72.8765416  24.5153975  54.6225405
  72.8163754  25.2570033  55.2247286  73.6806666  24.6731877  54.1278505
  39.1706514  17.8339028  22.4933243  39.3359590  16.9482231  22.8165531
  38.6362433  17.7069235  21.7094135  35.1191640  20.4054046  49.4902897
  35.2700853  20.9451509  48.7143183  34.2985201  20.7357192  49.8558903
  39.3685858  50.8403598   2.4109759  38.9646654  50.0521295   2.0479693
  40.1089577  50.5157678   2.9235377  26.8065977  15.5346406  49.5713806
  26.2192249  16.0576200  50.1170158  26.5338898  14.6300113  49.7247076
  58.2128525  21.9855022  56.5001345  57.3008394  21.7927766  56.2825918
  58.3421946  22.8889060  56.2114143  46.9352055  11.8000662  23.6411190
  47.7872801  11.4889669  23.9467621  46.3453722  11.0593653  23.7814426
  26.5902925   9.3584079  46.7212296  27.5178623   9.2379957  46.9245672
  26.3608694   8.5965198  46.1891317  17.7154326  24.3763757  60.4124498
  17.7660716  24.5541501  61.3516331  17.7758169  25.2389121  60.0018215
  12.1649797  56.4098764  28.9125299  13.1173523  56.4944459  28.8670182
  11.9384916  56.7211653  29.7889066  69.2896111  63.1378866  55.3164911
  68.8242514  62.9433323  54.5029640  68.7655086  62.7179326  55.9985352
   3.5687812  68.1047762   8.7277889   4.4909819  68.2070363   8.4925872
   3.5388501  68.2911325   9.6661961   5.0921059  23.3821487  54.7953510
   5.8248472  22.8186178  54.5468473   5.2052474  24.1703415  54.2641449
  57.2498004  47.8594498   2.2802653  57.3185651  48.1316535   3.1953682
  57.9247562  48.3658742   1.8283810   6.6024931  61.0037566  42.2301722
   6.3006814  61.2050796  43.1159592   6.9522412  60.1149274  42.2925377
   2.1569893  22.5941396  30.9803200   1.3026652  22.2524953  31.2442183
   1.9582845  23.4171438  30.5337667  15.4031777  22.3982716  51.8657541
  16.3063455  22.6064134  51.6265965  15.4801488  21.8920732  52.6744986
  46.5861034  13.5956252  68.8827467  46.6471386  13.2937300  69.7890425
  47.1858263  13.0268848  68.3999443  10.2638841  12.7891111  53.2003260
   9.6533066  12.3709869  53.8074493  10.8347404  13.3159280  53.7596273
  -0.1164547  21.2619138  31.7776704   0.2170208  20.5719972  31.2040472
  -0.0870725  20.8793139  32.6545882  17.1287163  55.4146458  33.1070566
  17.4396856  55.1622034  33.9764285  16.1849173  55.5321599  33.2150578
  22.2797211  67.5801052  50.9054899  21.9831188  66.9200469  50.2789259
  21.4799698  67.8706420  51.3439131  28.8652062   4.0894645  31.4462876
  29.0022898   4.3458751  30.5343175  27.9140139   4.0842801  31.5532422
  62.6527882  30.3039217  66.7170191  62.0659637  29.9559569  66.0456085
  63.5317659  30.1235318  66.3837290  34.5321711  63.5385025  22.9252934
  34.9973209  63.6732830  22.0996428  34.3209894  62.6049090  22.9315901
  83.9834682  33.4477799   9.0458693  83.2331316  32.8771947   9.2121853
  84.6361105  32.8742485   8.6441816  12.4155338  58.5343386  70.2986574
  11.5291985  58.5097242  70.6592607  12.5530346  59.4519568  70.0634909
  41.1803059  25.7366406   4.0080656  40.8245592  26.2798630   4.7113337
  40.6466655  24.9421941   4.0257801  71.2911291  51.0201121  24.2890692
  70.5800803  51.3956858  23.7698531  71.9902713  50.8577920  23.6557579
  44.2768235  62.1289838  22.0629239  45.2176959  61.9969774  21.9464612
  44.0957672  61.7988432  22.9429555  25.2082467   9.3920916  24.0406370
  25.3833389   8.5878885  23.5519314  25.6165147   9.2473489  24.8942161
  25.1152229   6.8876326  22.7293134  24.5971632   6.2560475  22.2303700
  25.9240913   6.4210129  22.9396152  47.6168585  15.8681357  61.9528151
  47.9308128  16.1775124  61.1031389  48.2429838  15.1902688  62.2071695
  41.0340691   6.5842885  45.0079918  40.3477144   7.1665257  44.6821880
  41.8436766   6.9397736  44.6413946  13.9796555   8.2549202  39.9497342
  13.8900769   7.3369825  39.6936131  14.5093250   8.6467326  39.2553520
  24.0554531  75.3314794  33.6656785  24.7386463  74.7127927  33.4073949
  23.3475645  75.1819868  33.0389595  45.4711914  13.2811177  39.1234970
  45.8806419  12.8150773  39.8524618  45.3333044  14.1688156  39.4539666
  54.6779251   8.9726353  11.7281318  54.5696545   8.2243848  12.3151851
  53.7963295   9.3337417  11.6352761  34.8573208  43.7128925  45.9301043
  34.7510457  44.3392754  45.2141523  35.3410053  44.1953087  46.6005898
  10.2555902  55.7452990  51.1472988  10.1350768  54.9225808  50.6731224
  10.9595783  56.1918975  50.6769991  55.6366730  19.2374945  54.9444866
  54.7779703  18.8634264  54.7471619  55.4594183  20.1598191  55.1292324
   9.2247279  60.7222057  63.6830044  10.0564416  60.2485014  63.6734915
   9.0087755  60.8455754  62.7586794  48.0788231  27.0857835   3.2022506
  48.3973169  26.6807938   2.3955426  47.8057718  26.3487983   3.7486282
   5.0250762  50.3022038   0.2649082   5.3648036  51.1924325   0.3560700
   5.4309790  49.8162614   0.9827770   4.6026175  65.5477260  16.5208115
   5.2513926  64.9311565  16.8601765   3.7590258  65.1610850  16.7555203
  10.3287156  71.1917473  13.8694012   9.8754747  71.3154937  13.0354404
  11.2290295  71.4665724  13.6957848  72.0311165  24.6682739  50.4734993
  72.9117346  25.0159979  50.6143236  71.9505405  23.9560795  51.1079407
  82.6343329  51.0203601  68.2091904  82.3896892  51.0083128  69.1345215
  82.4603064  51.9183446  67.9271126  85.8792813  75.4650582  55.8129120
  85.9152825  74.5189334  55.9535694  86.4439208  75.6161679  55.0548983
  83.3551223  66.4304365   8.9690447  83.8427193  66.0348249   8.2465684
  82.4530370  66.4765955   8.6522800  83.6750562  78.8398130  39.1278148
  83.4201176  77.9609759  39.4086766  84.4428403  78.7007667  38.5733724
  18.4965348  23.1601572  70.1005030  19.1842651  23.8258553  70.0903273
  18.9006925  22.4047589  70.5274248  76.7096018  19.9412763  47.4920416
  77.6503485  19.7738862  47.5486898  76.3707852  19.2249763  46.9550562
  39.2051403  48.3369546   0.6367649  39.9758069  48.5184418   0.0988354
  39.3924431  47.4923228   1.0463299  51.2937705  78.1181024  19.7011055
  51.7924778  78.9295887  19.6061768  51.7332594  77.6484226  20.4099716
   6.7128833  71.8215538  44.9875832   6.7645557  72.7727664  45.0811625
   7.3563488  71.4842678  45.6108189  86.2353976  31.3427878  52.4108076
  86.3832099  30.4449702  52.1136379  86.9926770  31.5404082  52.9619026
  16.9680508  47.6107264  51.0735941  16.1498316  48.1066609  51.0452509
  16.7088564  46.7376448  51.3681746  66.9134844  80.9766871  25.0268650
  67.6057298  81.5767932  25.3041720  66.1982418  81.5485072  24.7481489
  76.1100618  55.7699214   8.5188307  76.3790886  56.5491818   9.0052571
  75.5298273  55.3014515   9.1189112  57.3644748  59.7944012  51.4699696
  58.0319372  59.5134988  52.0959245  56.9301525  60.5322554  51.8979512
  51.8145991  54.4097663  41.4569283  50.8766938  54.2754723  41.3207960
  51.9398899  54.2879177  42.3980379  40.2808003  32.0570521   6.4603867
  39.7890012  31.2971686   6.7717470  40.8675436  32.2756688   7.1843876
  23.4819031  63.4613609  51.2805605  22.5551844  63.5428905  51.5058994
  23.5339284  62.6538134  50.7692957  45.2027178   9.6472776  57.8661442
  45.7114267   9.3532389  57.1105051  45.4895258   9.0813285  58.5828543
  70.1059198  24.2750120  38.9979100  70.0878143  24.4656372  38.0600595
  70.7930708  24.8440123  39.3447518  36.1910645  66.8739103   1.3969196
  35.4496221  66.6327642   1.9522061  35.8071969  67.4137257   0.7059206
  37.6802158  35.0773644  66.4056969  37.8115964  35.0221729  65.4591608
  36.7599106  34.8473334  66.5335798  61.0601964  67.8194406  52.7499317
  60.7616248  67.4251010  53.5694335  61.4837470  67.1016910  52.2791134
  16.8917668   1.6694866  34.4373345  16.6027331   0.7573546  34.4639230
  17.6011527   1.7147322  35.0783944  43.9305639   6.9765884  59.9518108
  43.5278702   6.3911057  59.3104982  44.8534203   7.0094258  59.6998405
  67.5823914  56.7540359  20.7452154  67.3803365  56.2342024  19.9672842
  66.7399442  57.1206427  21.0137558  14.3070424  19.9619722  42.6154375
  15.2117205  20.2135324  42.8011990  14.0748465  20.4630065  41.8335915
   9.3546981  34.2790508  42.1263027   9.2959112  34.8855758  41.3881254
   9.2286295  33.4140825  41.7362118  30.4154348   1.0929874  48.6334181
  30.9384370   1.8272159  48.9552975  30.1164842   0.6464297  49.4255304
  22.8340014  79.2145912  48.5204840  23.0031403  79.1607515  49.4610834
  21.9496592  78.8636113  48.4156752  74.9965746  67.4948669  57.9342937
  74.1803391  67.7497078  58.3644629  75.0511629  66.5482999  58.0656815
  15.8485373  81.1483177  54.3758297  15.6189116  82.0713413  54.4832087
  15.4242809  80.8895659  53.5577297  16.4431986   1.9605181   2.8386892
  15.6946072   1.4015553   2.6303496  16.8799719   1.5151189   3.5646929
  81.0311921  67.7580572  66.5613699  80.6252582  68.0750705  65.7545519
  81.9186313  67.5105012  66.3017559  40.5733061  33.6688042  51.3541603
  39.6591377  33.9222765  51.2265682  40.6416988  32.8056121  50.9461737
  23.6084056  30.3344107  42.9246330  22.9733086  30.9154058  42.5059080
  23.2062340  30.1037216  43.7620544  44.6084547  31.6530514  50.7553387
  44.1106176  31.5437150  49.9451351  43.9812231  31.4542913  51.4505386
  15.4682240   3.3789418   5.9521116  14.5330605   3.1830952   6.0099138
  15.5045256   4.2965672   5.6821551  72.9717350  14.6584845  28.8256574
  73.5055494  14.1382134  29.4261503  73.3916426  15.5186069  28.8158035
  28.3055615  30.2158856  50.9122849  28.3332348  29.2593265  50.9337616
  28.4926987  30.4811907  51.8127394  78.2957696   7.9740685  23.9761281
  77.4878513   7.9692000  24.4894266  78.0808895   7.4774408  23.1865597
  47.3553896  13.4604561  43.4851980  48.0017662  14.1584301  43.5913277
  46.8799639  13.4459674  44.3158579  38.1727004   4.4841081  52.5987387
  38.2696247   5.2537596  52.0379591  38.1687593   3.7442410  51.9914389
  55.8019352   8.6728609  45.2261353  55.2536392   9.3928653  45.5379009
  55.4746866   8.4862638  44.3461800  37.6109362  34.6651459  36.0161448
  38.4389544  34.3088555  35.6941605  37.2788548  35.1930618  35.2900195
  38.0691433  14.1732335  64.5157909  37.8117085  13.4787345  63.9094687
  39.0253663  14.1336799  64.5332193   3.7703283  69.0452016  33.9659476
   4.2366393  69.8649789  33.8023901   4.0645297  68.4590794  33.2687116
  25.5927300  29.7728205  56.4555168  25.6264281  30.6764579  56.1416197
  25.0455475  29.3172789  55.8157492  35.0180769  30.8720970  46.8386412
  34.3727374  30.6056595  46.1838293  34.9020505  30.2495503  47.5564146
  73.2706881  29.1772413  40.8649778  73.8391352  28.8515544  41.5628529
  72.4929094  28.6211634  40.9104872  30.9233117   0.1717016   0.5008125
  31.7288494  -0.2361666   0.8185935  30.4814839   0.4781726   1.2927057
  47.2293560  47.9554998   0.0810398  47.9437093  48.3698122   0.5650629
  46.6933219  47.5384055   0.7555260  19.9418378  17.4233723  19.0672863
  19.1874087  17.2721505  18.4978998  19.5607269  17.6110458  19.9250531
  47.4679375  33.3335018  45.3607750  48.0426693  33.8248110  44.7738075
  48.0644560  32.8213978  45.9068012  13.6950767   9.0428180  67.3463535
  13.3218646   9.6844798  66.7420244  14.1577506   8.4232628  66.7821598
  74.1783817  80.0594714  58.8790560  73.7528415  80.8553198  58.5600424
  75.1102645  80.2773307  58.8981485   3.5174882  18.5940933   5.8275759
   3.9520597  17.7859545   5.5550122   3.7499294  19.2307484   5.1516515
  17.6835322  20.3172278  63.2198143  16.8000829  20.0172210  63.4336901
  17.5814629  20.7952833  62.3968458  33.6909556  11.7049634  30.8600307
  32.7552581  11.6256261  30.6745410  34.0919852  10.9777248  30.3840756
  13.7452292  30.4075265  55.2293301  13.8474143  30.2585983  54.2893267
  13.3556664  31.2795663  55.2927160  31.2920308  38.6486292  56.4746904
  31.4640737  37.7990389  56.0687017  31.5349531  38.5289478  57.3927832
  49.7943830  21.7365885  68.9476442  50.4290819  21.5768170  68.2491732
  49.5423174  22.6533651  68.8371181  20.7345970  46.9794370  36.9565368
  20.8845432  47.8791667  36.6663074  21.3758286  46.8427206  37.6539302
  23.9506006  28.2623744  62.0545483  24.3604779  27.8453016  61.2967300
  24.6834636  28.5006428  62.6223230  24.3573626  67.9741789  23.0800796
  24.2557724  67.0451809  23.2871366  24.8652752  68.3281339  23.8101292
  22.1228051  13.1138766  16.1883545  22.2883129  12.1912253  16.3821375
  22.2206712  13.5569310  17.0311809  29.6856332  42.5900221  62.5903416
  29.8226476  41.7535877  62.1455479  30.4390407  42.6769733  63.1743336
   3.3481327  36.5576386  63.3641148   2.5043195  36.1871123  63.6228085
   3.2121649  37.5047517  63.3909321  42.6385736  22.6307297  28.7963843
  42.8866959  23.3771992  29.3417740  41.6949177  22.5403833  28.9289904
  41.0212056  55.7968842   2.3526110  41.6255860  55.1676701   1.9588532
  40.2302651  55.7367931   1.8168558  11.7272172   1.2568400   7.9963650
  11.3275132   1.5006230   8.8312544  11.6673216   0.3018305   7.9719462
  73.3958618  52.3987411   8.3282389  73.4824507  52.9502987   9.1057457
  73.3064167  51.5104590   8.6734690  24.1016293  14.2517257  19.9145424
  23.4033346  14.3580329  19.2685425  23.8022447  14.7499585  20.6750464
  52.7879095  23.3061481  42.6929426  53.6365414  22.9673052  42.4079084
  52.3926640  22.5831270  43.1800270  77.1999359   4.0383819  60.0230455
  76.3459921   4.3219891  59.6965885  77.1693182   3.0828634  59.9753094
   0.9228356  64.3520404  33.9751840  -0.0165312  64.2841710  34.1461015
   1.3245280  64.3582154  34.8439980  63.8262224  28.3608198  58.8338184
  64.2674828  28.1441855  59.6551514  64.3394470  29.0818191  58.4691286
  38.1087756  18.1616426  51.8257618  38.8338304  18.7815046  51.7463970
  38.4103155  17.5216198  52.4704885  38.5271215  22.3892021  41.2107849
  38.9819002  22.9254007  41.8603182  39.2170525  22.0996094  40.6138229
  25.1657486  47.9580736  45.4682350  24.5888400  48.6583710  45.1632929
  25.6338239  48.3396721  46.2108755  42.7949953  25.2496719  39.5235515
  43.6981773  25.4448962  39.7733068  42.7425909  25.4983759  38.6007118
  17.2962093  50.3451347  64.9689484  17.2135973  50.2898502  65.9209728
  16.9809639  49.4988680  64.6516371  30.9700251  26.9068599  39.4229364
  31.8989611  26.7594767  39.2452097  30.6161118  27.2306299  38.5945964
   3.9932513   5.2309841  13.4215140   4.8054659   5.2450883  13.9278150
   4.2372102   5.5876470  12.5674021  11.0196980  76.5820617  21.4343548
  10.7040580  75.8846498  22.0090032  10.8300932  76.2680973  20.5502129
  57.7026518  80.2050501  34.6805072  58.0739458  79.5013114  35.2125978
  56.8336542  79.8871256  34.4355464  49.9405766  19.7464502  36.8713570
  50.0141621  19.6375895  37.8194952  49.0146828  19.5923483  36.6837215
   6.4439297   7.2682178  53.4931850   6.9124883   6.4360142  53.4289885
   5.5814588   7.0317781  53.8344622  36.2531018  24.4013858  19.7746658
  35.4564667  24.0589643  19.3692625  36.7873144  23.6257315  19.9455810
   7.2504747  21.6383791  53.8347149   7.9871589  21.9877744  53.3332682
   6.5416348  21.5603876  53.1962061  61.0115115  32.5566189   3.6386122
  60.7184927  33.3201127   4.1360535  61.9042699  32.3988633   3.9457430
  59.6248054  34.3885350  61.7015886  58.8044500  33.8953829  61.6944313
  60.3005790  33.7317157  61.5338087   7.5049360  70.8861090  31.7717123
   8.2247360  70.8673967  32.4024010   7.5474079  70.0356568  31.3344955
  55.6622028  12.8968692  30.9086347  56.1724472  13.2004941  30.1578426
  55.1114273  12.1974933  30.5568504  42.4113663  52.3219133  24.0118265
  41.4713057  52.4444414  24.1441178  42.4728592  51.6087104  23.3763790
  59.5214453  79.2269304  70.0825399  60.0364795  79.4865634  70.8464512
  59.4401970  80.0280073  69.5649397   1.9959076  62.7618206  23.1211472
   1.6227253  62.7518917  24.0025496   2.7574380  63.3376420  23.1899548
  41.5065050   8.1347722  27.0495534  42.2376680   8.7442178  26.9484997
  41.8205786   7.3176110  26.6624641  32.9905486  24.7448850  32.2428870
  32.6546717  24.0448833  31.6830516  33.7015319  25.1368022  31.7357993
  41.6707993  19.1110909  22.5225592  40.9070492  18.6223793  22.8292799
  42.3055696  18.4365916  22.2810054  11.6442006  25.5311440  11.6127743
  12.0011656  25.9964226  12.3692955  12.4073451  25.3387939  11.0679402
  37.3571849  35.0434899  63.1532860  37.9000163  34.8470378  62.3897600
  36.4996243  34.6766353  62.9382563  44.5181377  73.7359644  59.3634701
  44.3166084  73.6449266  60.2947760  44.5769949  74.6808810  59.2224073
  39.2594631  73.1668801  34.2704535  38.4993513  72.6592381  34.5546412
  39.9374826  72.9640848  34.9149632  34.2351198  36.9887161  29.6449709
  34.5226717  36.0763001  29.6127319  33.3273983  36.9646120  29.3421578
  79.3602004  79.8007300  70.9102183  78.4475723  79.5126083  70.9283211
  79.3688932  80.5299427  70.2902134  33.4534755  61.7999294  70.0769037
  33.5973477  61.4545753  69.1958460  33.7268007  62.7156784  70.0227937
  52.0054054  20.0607991  64.9267673  52.4468327  19.2514622  65.1843452
  52.4877691  20.7516909  65.3808832  30.9599900  31.3782358  11.2196636
  31.3192463  31.0363841  10.4009438  30.5640268  30.6169558  11.6438067
  21.3465953  41.2022686  48.3682680  22.1979213  41.5961981  48.1777430
  20.8053899  41.4233255  47.6103354  20.6203985  28.1731820  42.4401522
  20.5473089  27.9260659  43.3620119  20.5090284  29.1238785  42.4374771
  26.0713625  25.3682017  15.0260687  25.3178120  25.9554625  15.0853693
  26.7141676  25.8547425  14.5100152  85.3492648  67.7937687  25.0600171
  84.4355495  67.8503478  25.3395796  85.4393060  66.9058789  24.7139287
  74.7173488   7.4181950  31.4017534  74.2444944   8.1068796  30.9344697
  74.0433180   6.7787558  31.6320372  47.4350166   3.0774516  56.6540384
  46.6774130   3.3813038  57.1539879  47.7408504   2.3045249  57.1286774
  59.8070614  45.9147422  20.2076306  60.6623523  45.5036657  20.3330292
  59.1840355  45.2887617  20.5767121  21.5404868  25.3164983  17.1296990
  21.4123297  25.8750319  17.8964102  22.0262575  24.5615530  17.4618411
  12.5063789   7.1385479   3.8318393  12.1048021   6.6617793   4.5582405
  12.0022452   6.8724728   3.0628890  14.2309833  44.3287516  57.1468782
  13.6915803  44.4488382  56.3653088  14.2934048  43.3793116  57.2512531
  11.9229674  23.0966282  42.2436094  11.7647398  22.2054839  42.5551510
  11.0486937  23.4589458  42.1000719  20.1578760   3.6114779  39.7568870
  20.1024079   4.3460318  39.1456699  20.8305144   3.8732862  40.3855705
  52.4962036  54.3793880   1.7516102  52.6185052  53.8302325   0.9772028
  52.9533593  55.1938914   1.5422644  83.5962024  17.2935917  70.3623210
  83.5785404  16.4642742  70.8399734  84.4268813  17.6972320  70.6138822
  69.2369413  30.4054284  49.7973967  69.9183416  31.0399318  49.5753002
  69.4423103  29.6371055  49.2647314  18.4483242  19.8890567  33.3614898
  17.9239559  19.1205871  33.5867071  19.3405581  19.5533133  33.2753062
  45.2011061  -0.2161957  33.0416226  46.1539459  -0.2161107  32.9503345
  44.9210739   0.6017977  32.6308918  16.9878650  41.1977482  48.0806589
  17.3673391  41.5001345  48.9057589  16.1608911  40.7873774  48.3335304
  78.3195598  79.6976642  48.8342524  78.3708174  80.3898200  49.4934416
  79.1147382  79.1815151  48.9665937  21.8732555  70.8703459  37.0205712
  21.7401655  70.2996648  37.7774358  21.4957245  71.7095614  37.2840500
  46.5162992  36.2509465  58.9893246  46.5896559  37.2046876  58.9542770
  47.3855352  35.9535837  59.2580843  33.5474944  26.7862868  38.6826229
  34.1170049  27.3310828  39.2258406  33.6305881  27.1553373  37.8033447
  25.5862617  22.7050209  36.8077230  26.4007473  23.1722832  36.9934964
  24.9116659  23.3839154  36.8236852  31.9581260  64.8094128   7.5671543
  32.0214118  65.7457470   7.3787178  31.8918825  64.7609662   8.5208286
  26.7695689  27.5983572  34.4813108  27.1272874  28.3488393  34.0069175
  27.2671604  26.8489313  34.1542101  31.2118292  10.0709832  30.5586720
  30.4499793  10.2535701  31.1086535  31.7711043   9.5149511  31.1011410
  40.1747322  20.4954934  52.6250505  39.6636200  20.6779695  53.4135294
  40.9888124  20.9834671  52.7490664  23.8937640  14.9135292  15.4024410
  23.7557554  15.8455563  15.5712914  23.0352354  14.5147288  15.5442667
  78.4690749  31.0890722  51.9627190  78.5256498  30.8494520  52.8877115
  78.0430948  31.9462609  51.9629765  16.2611444  75.7519186  39.5966101
  15.8960827  75.2575899  38.8627148  15.5130060  76.2224401  39.9642134
  34.0223932  14.4257629  30.8341551  34.3818879  14.5846462  31.7069411
  34.1366363  13.4855628  30.6955767  58.8230865  55.7481562   6.4488854
  59.3714063  55.3629540   5.7653679  59.1716043  55.3904520   7.2654690
   8.9270973  46.3983345  14.8919451   8.9034075  46.9761801  14.1292107
   9.8363715  46.4312410  15.1892138  24.7133327  40.0633097  39.3488860
  25.3077888  39.3137741  39.3165374  23.9993930  39.8285437  38.7560916
   0.1367993  35.6818843  33.5758209   0.5534550  36.2415528  34.2311049
   0.8480924  35.1370144  33.2390547  22.9819274  19.7322953  53.6063719
  23.2484746  19.1576338  54.3239689  22.3435044  19.2180455  53.1122065
  39.4419384  10.8841825  44.9924231  39.3419099  10.8237231  44.0423870
  39.1220760  10.0439286  45.3208923   1.9414203  23.4629703  52.4485302
   1.4593771  24.2888451  52.4909210   1.2616631  22.7891278  52.4385118
   9.6016257  38.0011810  14.1535343   9.8908656  38.3622341  13.3155598
   8.9047473  37.3871766  13.9220394   1.9401939  67.9806984   3.2852310
   1.2898310  68.3513988   3.8817543   1.8809755  68.5234846   2.4990329
  44.1988087  18.7097251  50.9550619  43.7362242  18.3097100  51.6914272
  43.7567902  18.3653891  50.1789904  10.0884223  14.8035347  51.4044380
   9.2392904  14.7164953  50.9712744  10.2105951  13.9713871  51.8614197
   8.5514313  34.3245053  32.9235911   8.5164714  34.3592238  31.9676590
   7.6998979  33.9716959  33.1817484  54.3231630   3.4767419  70.0305986
  55.1132202   3.0443990  69.7063732  53.6044121   2.9250693  69.7219133
  37.5394630  10.2147377  40.1283598  38.2448697  10.1091242  39.4900179
  37.0161796  10.9408998  39.7891068  55.9709740  17.3282552  59.1189337
  55.1119852  17.6746428  58.8772964  56.2555552  17.8802335  59.8473310
  25.9154534  31.1588836  21.6881585  26.1358476  32.0878839  21.7561102
  26.3293934  30.8734775  20.8736467  49.2779493  11.1680412  15.8964908
  49.7390461  10.3319561  15.9641850  49.9688196  11.8100011  15.7327259
  55.4132095  76.7362649  63.8338423  56.1245621  76.2307156  63.4406137
  55.4401928  77.5794716  63.3816195  61.5118837  13.5752439  36.4722657
  61.8495750  12.7244163  36.7520642  60.5837011  13.4190524  36.2981653
  77.7333450   5.2732509  66.4263344  76.9770813   4.7948429  66.7660761
  77.3553467   5.9592801  65.8761406  35.5762339  14.5706475  16.3635254
  36.4307809  14.3424904  16.7294848  35.5884600  15.5259204  16.3040781
  39.2780137  26.3329816  54.7950935  39.7454309  25.5865526  55.1700544
  39.9678445  26.8942595  54.4410658  24.1331840  18.4642124  33.8967896
  24.9354792  18.5433459  33.3807564  24.2435884  19.0938306  34.6092677
  48.4709072  19.8538744  32.9295325  48.4280491  19.2503428  32.1878147
  49.0993690  20.5228472  32.6579762  56.6069317  19.6226466  52.4086571
  56.4902258  19.6827781  53.3568096  56.2657738  20.4513264  52.0723104
   7.1523416  14.0251863  43.6984205   7.4712509  14.0249825  42.7959108
   6.4099598  14.6293628  43.6899853  80.3278739  41.1825562  33.0833554
  80.0636871  40.5558635  33.7569237  80.9449966  40.6984902  32.5346565
  50.0300789  29.1161561  49.8398590  49.2553520  29.3621492  49.3343735
  49.9870205  28.1615067  49.8948288  38.9895733  79.5987109  32.7597642
  38.1887634  80.0998072  32.9141593  38.8605268  79.2001487  31.8991089
   8.2103888  49.4956579  60.2686678   9.1063562  49.5368066  59.9343382
   7.9304377  48.5972109  60.0935863   0.4826220  65.0574518  30.3096366
   1.2802442  65.0650383  30.8387589  -0.0511567  65.7651533  30.6708455
   4.5867475  70.7648326  29.8903537   4.8548325  70.4864944  30.7660747
   4.2551764  71.6543830  30.0127935  41.4315557  34.3897629  44.7864199
  40.9121418  35.0005531  44.2635632  41.3905478  33.5650682  44.3022394
  47.8145123  27.1729660  44.6893120  48.3665180  27.9167414  44.4478130
  48.1985617  26.8435287  45.5018473  20.5433846  17.3645151  49.4373083
  20.7576919  18.1289232  48.9025354  19.9155891  16.8712270  48.9093208
  76.2767139  27.9392650  50.2479373  77.2164407  27.8740527  50.4179059
  76.2167850  28.1855621  49.3249117  21.3396335   7.0553267  30.2475095
  21.4100742   6.1587137  30.5751610  20.7322502   7.4837184  30.8506656
   7.6942928  78.6292128  38.3373284   6.9840200  78.0060593  38.1842852
   7.2549875  79.4226838  38.6433458  25.9519610   2.0086453   2.0676293
  26.4155707   2.8222058   1.8690790  26.1154208   1.8610356   2.9991450
  21.3802012  73.5042048  66.9540977  21.2738522  74.3715812  66.5634823
  20.8462961  73.5319895  67.7480793   0.3383868  61.0767053   4.0979590
   1.0827725  60.5381893   4.3665089   0.6277173  61.9768308   4.2472710
  39.1074157  22.2687244  66.5301609  39.7813559  22.5365925  65.9054375
  38.3842897  21.9595838  65.9844923  68.1897354  16.0713196  57.9924583
  68.4132719  15.4701221  57.2819471  67.2335148  16.1125839  57.9793739
  29.6923971   0.7796512  65.9817266  29.2657614   1.5858425  65.6914330
  28.9918399   0.2720298  66.3913250  22.8227472   8.4819442  39.1720319
  22.4656057   8.7190455  40.0278759  23.5936332   7.9512525  39.3728662
  79.9465149  25.2940416  56.7480421  79.9917632  25.6750011  57.6250029
  80.5372804  24.5417047  56.7829561  46.9492817  42.4330807  16.7255270
  46.3682938  41.7204332  16.4594054  46.3810730  43.0417013  17.1976972
  71.4009702  45.5298758  54.8082209  72.1911239  45.3691912  55.3240395
  70.7011258  45.5995655  55.4575253  31.3461113  18.8755822  12.6304960
  32.0453000  18.3926618  13.0711293  30.8626676  18.2072544  12.1448493
  42.8565836   0.4049353  28.9417195  42.3736715  -0.3018454  29.3700743
  43.3911991  -0.0361108  28.2814956  30.1220989  25.5124712  62.1367693
  30.3450465  25.5237222  61.2059641  30.4922795  26.3250685  62.4815607
  37.8471851  21.4352679  64.4533062  36.9083524  21.3007045  64.3240213
  38.2374334  21.2333369  63.6029148  17.1020687  48.2428074  20.2946711
  16.8043458  48.2735157  21.2038755  17.2421288  49.1595030  20.0574183
  35.5802131  24.2403460  37.3415256  36.0893345  24.6072149  38.0643225
  34.9721956  23.6318946  37.7614474  70.8408499  15.7199526  21.3922429
  71.5841150  15.1260030  21.4972019  70.2349854  15.4711175  22.0902658
  67.0036085  63.9940942  36.3056684  67.3440398  63.6637104  35.4742932
  66.0605461  64.0749908  36.1631155  59.0786935  78.8428617  17.4152076
  59.8710440  78.7735704  16.8826556  59.3515186  78.5609130  18.2883072
  47.9826260  30.2649283  48.5514784  48.5787868  30.9149814  48.1796455
  47.2138405  30.2914619  47.9818344  31.8550467  11.2900364  70.7537222
  31.4753532  11.0917473  69.8977137  32.0732617  12.2209632  70.7091093
  64.1886759   8.7207580  20.2934694  63.6770630   9.3866813  20.7528472
  65.0475264   9.1238731  20.1665497  33.8942345  74.9015392  35.9241676
  33.4080322  75.1542509  35.1393247  34.0807064  73.9707840  35.8010650
   6.5125179   0.5594765  13.5118866   5.6658059   0.5045091  13.0688417
   6.7373240  -0.3490778  13.7124431  43.6846256   2.5651854  34.0019965
  43.5301208   2.1432242  33.1568289  43.4341478   1.9052626  34.6485233
  29.2547059  20.1519966  28.1575084  29.9329114  19.4773507  28.1909966
  29.5293832  20.7327247  27.4479032  19.9726534  23.2315564  23.6454105
  19.3869126  22.8854775  24.3187380  20.8521295  23.0479050  23.9756012
  53.2769267  39.7484410   4.3625368  53.3189957  39.7322698   3.4063973
  53.3520119  40.6751987   4.5899452  52.5063960  30.2111970  12.3604645
  53.3108036  30.4925631  12.7963413  52.6238982  29.2710100  12.2245468
   7.7333492   2.6885003  65.3284168   7.4691463   2.4492097  64.4400644
   7.5245792   1.9177268  65.8561993  71.7301933  23.7611328   4.3066181
  72.6310532  24.0647791   4.4183220  71.2110846  24.3413328   4.8635115
  33.0231261  24.5008016  49.3357086  32.9630518  23.6989355  49.8549700
  32.2154188  24.9750257  49.5330667  81.8158428  31.6940706   9.2059960
  81.9693987  30.7714211   9.4093956  80.9932415  31.6977488   8.7165608
  61.5412013  25.3954314  12.1593632  60.8151237  25.1554679  11.5836395
  61.9355599  24.5596121  12.4085964  11.6360489  41.0958168  64.6094172
  12.2642962  40.4139275  64.3715922  12.1002689  41.6369981  65.2480505
  75.4046733  66.0550655  45.0391054  74.7187168  65.8877016  44.3928194
  76.2181122  65.8251465  44.5900106  26.7871642  37.6375866  57.0804310
  27.3016548  36.9898438  56.5988111  26.0234261  37.7971864  56.5259361
  79.6480124  43.3556326   7.8432717  80.5192606  43.0208424   8.0555691
  79.1488974  43.2555708   8.6538901  59.1272116   4.7198123  43.6987925
  58.5621500   4.3782720  43.0057669  58.9469099   5.6597644  43.7133837
  20.9889372  75.1476742  36.2845874  20.9097822  74.2249204  36.0427380
  20.0899179  75.4285265  36.4552188  18.4693396  49.8918867  40.1891136
  19.2954874  50.1007938  39.7531438  18.6959553  49.8354959  41.1173868
  22.0033979  37.3146057  48.8943911  21.7922950  37.5207877  47.9838133
  21.4825487  37.9328847  49.4069147  23.4280642  52.2588778  29.0883207
  23.8617714  53.1070853  29.1814613  24.1228874  51.6171575  29.2354608
  40.1909836  72.4692614  53.2080555  40.3565701  73.1199182  53.8902998
  40.2386101  72.9631097  52.3894739  78.8663967  37.6588059  50.2341795
  79.1214306  36.8944169  50.7508039  77.9146488  37.5901700  50.1586962
  74.4599199  24.0689087  48.6264277  74.7514772  24.4635677  49.4482946
  73.5244703  23.9117789  48.7547827  33.9607239  24.8598266  43.7745810
  33.5118032  25.2652693  43.0327463  33.7485719  25.4223251  44.5194387
  33.9369702  21.3807154  28.7189388  33.7826133  21.8211341  27.8832126
  34.8883033  21.3930225  28.8240409  26.0858250   8.8914222  35.3687906
  25.1467490   9.0761334  35.3845143  26.4991212   9.7363138  35.5464888
  60.1575455  74.8244346  58.1632376  60.8651466  75.1080788  57.5843763
  60.0941734  73.8802613  58.0191755  74.1552345  61.4027499   1.5426840
  74.2234604  60.4886983   1.2668432  74.9271624  61.8249487   1.1657013
  44.1326406  39.8624608  65.0181346  44.2514446  40.3030219  64.1766928
  43.3728459  39.2953711  64.8864041  37.9306126  28.8833714  47.8039980
  37.0743442  29.0323496  48.2050514  37.7911544  28.1474924  47.2079563
  83.7465818  74.1253866  53.8206673  83.9851529  74.7969163  53.1816339
  83.7536485  74.5820046  54.6619081  27.5932749  46.8226076  31.9062018
  27.9529245  47.3468400  32.6217890  28.2409485  46.1318136  31.7663717
   6.1883175  35.9751487  49.1075802   5.3346848  35.8577251  49.5244169
   6.1455500  36.8474150  48.7157154  14.5182856  78.9058564  44.0096045
  13.6242302  79.1399674  43.7604189  15.0231226  78.9940075  43.2011461
  45.2335262  24.2888689  43.6632776  44.3269396  24.5913339  43.6099148
  45.7389116  24.9664855  43.2142258  36.7724156  39.4566369  52.7367544
  36.1168933  39.1723847  52.0997906  36.5878701  40.3861189  52.8718090
  15.7652433  61.1195136  49.8485088  16.5326889  61.4384628  49.3736076
  15.1419552  60.8795191  49.1628361   6.3365626  25.0008464  14.4397593
   6.6220027  25.4337883  13.6351991   5.9599310  24.1717172  14.1449273
  10.6262398  29.1652632  37.7595067  10.3524113  28.7910771  38.5969067
  11.4904309  29.5376825  37.9347277  65.1266050  26.4797854  26.7404222
  65.4182816  26.8835735  25.9230399  65.5241823  27.0150495  27.4271965
  47.8012276  17.4412847  54.6936321  48.2444048  18.2339847  54.3912268
  47.7872372  16.8676209  53.9275122  19.3907249  36.9694829  63.5800552
  18.5681307  36.8355227  64.0508270  19.1704631  36.8088722  62.6624966
  68.9954178  32.9056291   7.8692974  69.8232691  32.9616819   7.3920597
  68.5845224  33.7600087   7.7372660  21.7348242   9.4010329  59.8039436
  21.0568881  10.0759923  59.8365545  22.0685410   9.3532670  60.6998110
  61.9604683  60.1683283  52.6093912  61.5590382  60.8462334  53.1530190
  62.4985266  59.6612358  53.2173300  32.4732883  75.9994174  33.8242769
  32.7869566  76.8250147  33.4551811  32.3472937  75.4301960  33.0651021
  44.9497652  17.3052883  58.6836004  44.1455984  16.8906903  58.9961052
  45.2909517  17.7716708  59.4466925  52.1061850  41.6555977  57.6761675
  52.3178387  40.9053850  57.1206379  51.9578362  42.3743677  57.0616770
  35.8421803   0.6762457  15.6910419  34.9695492   0.4130466  15.9834003
  35.6814170   1.3707538  15.0522578  75.0345230  34.3281317  56.4072704
  74.7168732  34.5298839  57.2873974  74.7588778  35.0751686  55.8760548
  78.6726952  23.6915708  51.0347605  77.8771877  23.2653952  51.3537788
  78.6198854  23.6149669  50.0820923  32.8623398  77.6928473  40.0129318
  33.4708555  76.9539712  40.0108433  32.0993765  77.3761467  39.5293832
  43.6423159  41.2712002  70.5096245  43.0979776  41.4222956  69.7369051
  43.1650496  41.6918993  71.2247896  69.3408933  31.0878762  64.2852990
  69.1571107  30.6630304  63.4474669  68.4867730  31.1552747  64.7121118
  42.4975491  12.2843719  34.2510009  42.1446466  13.0738378  33.8405919
  43.3850384  12.2084856  33.9005113  39.8107934  29.8934770  52.2561550
  39.5118403  29.1543698  51.7264557  40.0884438  30.5495381  51.6168356
  23.0303581  70.1172245  56.5838194  23.9845236  70.0410903  56.5857935
  22.7945955  70.1497413  55.6566763  70.4083769  59.5963071   2.7437939
  69.4791214  59.6030806   2.9732956  70.7717459  58.8613628   3.2378115
   8.6657374  45.2835728  19.7749867   8.5959952  45.7913719  18.9665856
   9.4677727  44.7721462  19.6681370  30.5301189  55.2869844  12.6634753
  29.7992229  55.3444862  12.0480740  30.6425977  54.3485308  12.8147376
  28.8515663  12.6805305  51.2500238  29.6722794  12.4910688  51.7047405
  28.2044601  12.7673745  51.9499826  29.9480438  37.6556849  44.7706795
  29.6037292  37.5952792  45.6617641  29.3656659  38.2746840  44.3303299
  30.3358316  31.1300993  49.2878103  29.5376325  30.9089422  49.7676039
  30.0289345  31.3898921  48.4191608  57.0382452  29.4716930  51.5248489
  57.0405960  30.0483966  50.7608843  56.2176847  29.6732855  51.9745970
   2.8768905  78.1953783  40.5625772   2.4168165  78.7192986  41.2183762
   3.3979280  78.8304220  40.0711823  69.6585648  70.7578419  15.5422463
  68.8374845  71.2482380  15.5818810  69.5137875  70.1031517  14.8591293
  35.4156160  26.4360976  15.8041906  34.4912195  26.6586876  15.6938422
  35.7067895  26.9786549  16.5370476  47.2946072  20.5694175  68.5067701
  48.1379223  21.0177207  68.4429026  46.6906357  21.2396979  68.8264179
  51.7232180  10.2349246  68.4949017  51.9678402   9.4340003  68.0313158
  50.8408737  10.4332244  68.1812525  15.0816639  67.0198501  65.5308962
  14.2658957  66.5334309  65.4119301  15.2907713  66.9135071  66.4589024
  22.0772076  13.5101318  44.0833473  23.0229950  13.6493838  44.0351105
  21.9827175  12.6389015  44.4683933  49.5267916   6.2088495  48.4084988
  49.6755934   6.1444086  49.3518639  50.3656435   6.5027034  48.0532312
  67.4262619   8.1721210   9.2126113  66.8668604   8.4449297   9.9398482
  66.9013309   8.3410251   8.4302121  45.3866720  13.8776851  18.8873303
  45.7761669  13.7492228  19.7522140  45.9616518  13.3969510  18.2919109
  77.9782867  59.8391390  49.3627453  77.3288059  60.5387163  49.4334173
  77.6067924  59.2311001  48.7235928  11.8303907   9.0803027  36.2454963
  12.6741111   9.5234513  36.1561179  11.9752955   8.2114953  35.8707881
  46.4946032  10.8274722  27.8090453  45.9666538  11.6056192  27.6301932
  45.9798145  10.3295493  28.4441066  82.3903186  78.8469870  20.3373027
  82.5371249  78.2948304  19.5693159  81.9388683  79.6184550  19.9948680
  35.6278046  72.3837311  52.0046663  36.4070900  71.8280996  52.0194721
  35.8182438  73.0801840  52.6330900  46.6813755   9.0548480  50.5615473
  46.5170383   8.8933253  49.6324968  45.8118773   9.0567541  50.9617949
   3.9764023  22.4045730  26.3146400   4.6442032  22.8330612  25.7792258
   4.0542126  22.8208756  27.1730494  28.7716889  48.4533072  25.4128647
  28.1065512  48.2336330  24.7605085  28.3092499  48.4114361  26.2498999
  29.4777489  24.8341417  44.0186310  29.3466163  25.4028416  44.7773266
  30.1347494  24.1998577  44.3054533  60.7433901  75.8395017  63.0440378
  61.1772419  75.3826941  63.7646866  61.0456742  75.3865767  62.2568178
  57.4922800  65.1928139  62.5954628  58.0528402  65.2130461  63.3710909
  56.9490576  65.9772110  62.6720238  21.2247713  78.6155201  62.9270554
  20.4956158  78.1579358  62.5085068  21.5868862  79.1709704  62.2367096
  37.3465753  24.8932505  39.6614933  38.2192135  25.2781534  39.7426319
  37.3645353  24.1340637  40.2441978  71.2687349  14.1382098  47.0987654
  71.7523384  13.9898121  46.2861538  70.5174065  13.5478973  47.0415688
  58.3610630  10.4723012  57.3271847  57.8557730  11.2673736  57.4968052
  59.2266417  10.7891202  57.0690441  30.8423209  25.8228827  59.7150898
  30.8077860  25.1287055  59.0569448  31.7759991  26.0035658  59.8238659
  55.3107309  24.2662477  45.2310705  55.6748581  25.0385952  44.7984982
  55.2857304  23.5977530  44.5464420  22.5182541  80.7229371  36.6927552
  22.6512154  81.6483278  36.8981934  22.1404751  80.3523956  37.4903846
  26.8651867  18.6990082  27.3965955  26.9710970  17.7793896  27.6401472
  27.6447845  19.1306508  27.7460861  26.0315752  19.8251009  47.9762220
  26.0003352  19.4061971  47.1161222  25.1994586  20.2931571  48.0450344
  81.4280755  73.4331579  15.6944096  81.7914398  74.1011519  15.1130462
  82.0826895  72.7347935  15.6954741  63.0674934  27.8505754  50.3992701
  62.1736526  27.7218056  50.0819397  63.0589437  28.7236595  50.7915449
  30.6242728  23.4562373  51.7836905  30.0191760  23.6898589  51.0797644
  30.3941274  24.0448618  52.5025702  60.0691414  28.0075383  43.9017439
  60.4735041  27.1547079  43.7423611  59.9975300  28.4046268  43.0337429
  28.6949229  36.9356203  49.8855495  28.8564563  37.8789425  49.9024200
  29.3969393  36.5628338  50.4188728  45.7942677  29.5653987  47.0679522
  45.7095480  30.0770879  46.2634468  45.1503754  28.8633657  46.9742155
  19.2550571  70.7877792  55.3246260  18.3913239  70.4217721  55.5149937
  19.7168406  70.0858773  54.8660183  37.3900747  50.4845715  23.7046361
  36.6363835  51.0491371  23.5330153  37.4021029  50.3838825  24.6564484
  41.3044438   1.0797427   1.2787260  41.1700043   0.3157590   0.7179369
  41.9308791   0.7845423   1.9395317  56.7995453  62.3242044   6.3791132
  57.3205280  63.1024885   6.5768111  56.0068512  62.4264717   6.9058037
  20.6596780  14.7138953  50.8537769  20.2573681  15.5487609  51.0933161
  21.5721273  14.9331224  50.6650782  25.5808687  43.8043165  61.5807390
  24.9236226  43.1397009  61.7870092  26.1983299  43.7653303  62.3111200
  47.4360943  41.4571047  45.9789181  48.0853891  41.9137192  45.4439831
  47.9526138  40.8824825  46.5439415  32.4888134  39.0572071  23.0167985
  32.6282597  38.3280158  23.6210060  31.7868853  38.7583566  22.4386859
  72.6808548  31.0561180  31.3363218  72.2551346  31.8042064  30.9175658
  71.9767141  30.6149101  31.8114567  69.9568081  34.6269131  43.3508778
  70.0504112  33.6743236  43.3576298  70.8450460  34.9558449  43.4889698
  13.7766989  77.0354886  64.1031599  13.6354168  77.8637795  64.5616388
  13.2349928  77.1015895  63.3167648  60.3499651  64.7699785  54.0689182
  59.9621773  63.9752436  53.7025166  61.2713814  64.5474768  54.2020369
  41.1356735  23.6062574  35.5645132  42.0348644  23.9190674  35.4653192
  40.7470560  24.1954803  36.2110591  78.3998585   9.2629117  52.3960352
  78.6425066   8.7476110  51.6267395  78.6962795   8.7376994  53.1393528
  62.3543119  20.1086593  25.3653145  63.0631590  20.7483816  25.4325294
  62.4927282  19.5190334  26.1065388  82.7701084  80.3543924   4.3068661
  82.2680466  79.5948456   4.6022524  82.4528591  80.5207275   3.4192194
  85.2028656  42.5764751  51.9679737  86.0753632  42.6234150  52.3588276
  84.6365356  43.0319357  52.5909233  71.3569069  60.3392553  63.5489178
  72.0059443  60.1261950  64.2194271  71.6979790  59.9383211  62.7494431
  79.7587633  35.1162696  28.2383060  79.8344517  35.5126643  29.1062784
  80.0273132  34.2064691  28.3662534  67.4603224  21.5966201  32.4086237
  66.7830038  20.9530735  32.6167440  68.1291914  21.4662838  33.0808306
  42.9147156  65.6749822  13.3795261  43.7082823  65.4053820  12.9171431
  42.8634842  66.6200329  13.2364023  81.0809040   5.9233129  50.5872488
  80.7896900   5.0955564  50.9696722  80.2884007   6.4582324  50.5421114
  55.3026772  75.4049015  50.4313755  55.8251095  75.3111744  49.6348143
  55.7505751  76.0862255  50.9327841  64.9909925  31.2240434  46.9471693
  65.3773594  31.4497662  46.1009979  65.2659178  30.3204441  47.1025991
  86.2709713  71.7019892  49.0801287  86.3087082  72.3449087  49.7882652
  87.1775150  71.6175795  48.7846994  61.9094038  35.3403425  48.2970285
  62.5660181  35.8504820  48.7712097  62.4135160  34.6677661  47.8390551
  55.4415369  25.5745196  31.5183043  55.9345055  26.2665701  31.0775304
  56.0594988  24.8467493  31.5869117  48.5522079  22.5145292  59.3605852
  48.6993599  22.4185014  60.3015232  49.4284105  22.6238513  58.9910650
  60.7359505  43.4284973  53.9680672  61.2742615  42.6923895  54.2589188
  60.2916288  43.7283564  54.7610950  60.6047575   3.7335729  65.4263449
  60.3036301   3.0595445  66.0356474  60.5484693   3.3201074  64.5648813
  74.6655035  38.7950850  39.4944715  74.6432543  39.6576357  39.9088907
  73.7449789  38.5478926  39.4063354  43.3645663  23.3236382   9.1384234
  43.9782557  23.8914893   9.6044315  42.5791154  23.3197997   9.6854939
  55.5920887  47.8327894  48.8030958  55.9495640  47.7832651  49.6896553
  54.6702147  48.0577040  48.9287806  53.3595419  70.0541544  59.3147039
  52.5394678  70.1335907  58.8274670  53.1135464  70.2155066  60.2255726
   0.3479863   8.5822046  30.2454805   0.4570103   7.7915102  29.7171354
   0.2025223   8.2581586  31.1343360  51.4011955  26.2098193  70.1386261
  51.8709135  25.7264686  70.8183050  50.6298351  25.6741452  69.9534559
   2.6980870  27.2080754  25.9408951   3.2537596  27.3802327  25.1807499
   3.2807772  26.7874765  26.5731883  70.7388306  37.6791000  32.8149390
  70.4595661  37.3632383  33.6742854  70.3235340  37.0811987  32.1934295
  62.1157742  57.3177052  48.0488682  62.6256847  57.8800678  47.4657965
  62.6128292  56.5006495  48.0887079  46.1172056  39.1143489  58.8363361
  45.1715183  39.2147255  58.9450788  46.4182901  39.9767876  58.5503578
  18.5594369  16.5359843  59.8363781  18.9155675  17.3896849  60.0825596
  18.8129521  15.9548843  60.5535173  54.9903584  48.7647486  56.2586069
  54.7669649  48.9274788  57.1750402  54.5218849  49.4441128  55.7736063
  80.5820751  78.4707403  48.7958479  81.4563274  78.5753345  49.1713047
  80.7345200  78.3816624  47.8550720  55.0585270  68.4628677  26.2743354
  54.3424273  68.4839201  25.6395173  55.5255699  67.6498604  26.0816741
  21.2071133  16.7435777  40.0395203  21.4035035  17.6756501  40.1338911
  21.5968991  16.3371158  40.8135271  61.1471891  19.5142627  39.0152740
  60.2700281  19.2221212  38.7673235  61.3013268  19.1110909  39.8696303
  48.6660767  61.1856174  43.2665730  48.8710499  60.7368994  42.4462891
  49.4674635  61.1145353  43.7851906  53.0391550  37.9930711  52.6375151
  53.2369852  37.3261380  53.2950020  53.8855934  38.3948612  52.4417019
  53.2658815  46.4709187  68.1658649  53.4996319  46.5480614  67.2408581
  53.9803171  46.9066286  68.6305904  67.7704620  61.9446373  59.8119974
  68.6338902  62.3551941  59.8584652  67.3240328  62.4054956  59.1016865
  71.7545652  37.9942226  41.8597698  71.3615942  38.3331203  41.0554361
  71.0531330  38.0454326  42.5090790  10.6448636  17.7590344   0.4748739
  10.7624874  16.9186185   0.9177031  10.6815347  17.5456689  -0.4575191
  13.8893216   3.1789826  61.4029121  14.6624940   2.7331018  61.7487860
  13.3554785   2.4777459  61.0294199  48.6603913   9.8724625  35.9808029
  48.2916865   9.0027926  36.1356129  48.9406285  10.1712773  36.8459095
  70.0264931  61.8220472  69.7404909  70.5350304  61.4983654  68.9969492
  69.2566013  62.2303438  69.3445253  52.9816580  62.3820734  59.3593121
  52.6627922  62.1552658  58.4857512  53.6840773  63.0129147  59.2015743
  77.6514999   9.0321397  61.8848753  77.9997818   9.7028493  61.2974453
  76.7464630   9.2999314  62.0443249  30.1608618  68.3527947  17.7398992
  30.0509270  67.7373863  17.0150423  30.0209387  69.2140032  17.3462331
  62.8583145  31.5615296  42.8332090  62.8953695  30.6344604  42.5978279
  63.7236834  31.7514038  43.1955862  38.7756085  77.4803257  62.2706842
  38.5644627  76.7385626  62.8376389  39.5301795  77.8945780  62.6893139
   9.0788079  24.7713852   1.2551567   9.2000104  25.5745625   0.7487514
   8.1344700  24.7220111   1.4035547  29.7200274  63.8355446  25.7035470
  30.2376127  64.4410515  26.2343001  29.2541909  63.2955027  26.3419700
  64.2380571  55.9961748  67.7740431  64.6901512  56.2476587  66.9686890
  63.4106016  55.6182337  67.4761963  81.6069031  68.9671707  44.0091658
  82.1968174  68.2218504  43.8963413  82.1095943  69.5938635  44.5295477
  54.1049623  42.3129797  51.8788528  54.5587158  43.1236649  52.1093607
  53.1901884  42.4770451  52.1079922  81.2762737  40.2801657  48.4345531
  81.7204094  40.0843048  47.6095629  81.7153454  39.7265267  49.0802622
  81.5274620  18.2056808  55.3019190  81.9956970  18.4391344  54.5003605
  81.0583687  19.0034735  55.5462694  85.6483841  53.2214832  31.8654990
  84.9245548  53.7544441  31.5364671  85.6952477  53.4308767  32.7983379
  78.1712961  45.9888077  47.6210117  78.1216383  45.3159571  48.3000135
  78.5855436  46.7354774  48.0535698  51.5272999  48.1870985  56.3054466
  51.5862942  47.9722691  55.3745365  50.6274843  48.4910250  56.4245653
  32.3662758  44.7911453  16.0260189  33.2524228  44.5854998  16.3238204
  31.8718696  43.9842939  16.1701858  33.0046757   7.2923352  65.6206892
  32.9813631   8.2386662  65.4787247  33.3707674   7.1908928  66.4992778
  54.7584438  57.3398161  61.0431337  53.8313341  57.5770903  61.0232306
  55.2006197  58.1278133  61.3590050  63.3601999  39.2591953  41.6249657
  63.6195230  39.0319395  40.7320261  63.8912296  38.6890817  42.1810293
  46.7230463  28.8116956  65.8584642  46.2603903  29.3292117  65.1994038
  46.0849714  28.1557131  66.1391449  14.6295071  73.5561371  67.2166872
  13.7372208  73.8417435  67.0205116  14.9864007  73.2870340  66.3702583
  85.0348759  29.8531890  38.1593966  84.7482777  29.1548157  37.5708652
  85.6906986  29.4394183  38.7205744  75.0043011  68.8928032  69.5175934
  74.9252272  68.2095957  68.8518572  75.8051538  68.6722183  69.9932146
  53.9905977  71.5318155  56.4187717  53.6079264  72.0030355  57.1588707
  54.4793177  72.1990252  55.9368849  50.3220177  58.1625986  46.8199492
  49.7857189  57.4960232  47.2492409  49.7191000  58.6084938  46.2250519
  84.4340229  62.3107576  48.1776237  84.1072178  62.3712778  47.2799778
  84.7538090  63.1908989  48.3759356  28.3891297  22.4636149  64.8517036
  28.6727524  23.1929469  64.3004608  27.5332070  22.7336216  65.1844501
  54.4380474  21.3535666  58.9196968  53.9710379  22.1087766  58.5622120
  55.3634787  21.5853763  58.8417721  18.9125825  62.1028996  45.6667423
  19.4199944  62.8698301  45.9324217  19.0523244  62.0387983  44.7219706
  59.7446585  36.2469101  55.4418087  60.2178574  36.0164189  56.2413025
  59.2244864  35.4694533  55.2387905  25.6292861  59.5767246   7.1638073
  26.4148467  60.0642263   7.4117340  25.8497183  59.1797827   6.3211455
  71.1918879  35.4143405  17.7235997  70.3895187  35.3647494  17.2040033
  71.1802578  36.2948847  18.0987477  66.6241980  44.3239546  52.7512264
  66.8189430  43.5057783  52.2941780  65.7520199  44.1894579  53.1219673
  34.0321851  10.1768231  44.3827868  34.8352528   9.9205494  43.9293146
  33.6820912  10.8985412  43.8604927  30.5077179  71.1306954  12.3154879
  30.8443935  71.9931103  12.5586379  29.9621208  71.2947191  11.5462947
  67.7772999  58.5500860  68.6599588  67.3689413  59.3483353  68.9950371
  68.3846283  58.2838154  69.3502331  44.1350365  52.2371340  61.0408878
  43.2818937  52.0967531  61.4515877  44.5599985  51.3800240  61.0724783
  83.8351059  50.4085684  46.8098831  83.5427380  50.9916878  46.1093712
  84.1681004  50.9966755  47.4877310  65.8214331  71.9428921  42.8070211
  65.5558109  72.3286200  41.9722223  65.2533054  71.1793947  42.9096365
  38.3955908  30.5627251  62.7538109  38.6213970  31.2624621  62.1409369
  38.0901527  29.8462772  62.1973515  59.0038919  40.3595495  46.2252617
  58.7663460  39.6343112  46.8030453  59.9573708  40.3093863  46.1575079
   0.8706856  28.9958119  27.0090032   1.5605260  28.4241009  26.6721153
   1.3362790  29.7645998  27.3382735  27.7691054  73.5858727  69.9261093
  28.1149673  73.4303379  69.0472364  26.8932462  73.9429283  69.7791052
  69.0365601  40.6490517  36.2305236  69.5353413  41.3808537  36.5937185
  69.1445732  39.9448681  36.8698120   0.3041840  49.3172932  54.4573450
   0.9993077  49.5632887  53.8469934   0.3469182  49.9785233  55.1481295
  28.9522490  32.4634574   5.3219999  28.8541255  33.1749699   5.9547295
  29.5021948  31.8198369   5.7687058  41.7017603  38.7964249  51.9628096
  40.8018160  38.4716272  51.9338560  41.7002773  39.5580792  51.3830566
  47.5042295  79.2905951  21.6766906  47.2832251  80.1260948  22.0881820
  47.7249384  78.7142324  22.4083471  61.3931227  70.2930164  46.6665077
  62.1148586  70.3446531  46.0398817  60.9197426  71.1174726  46.5550804
  68.4584332  63.4714317  46.1840773  69.2529297  64.0005255  46.2552881
  68.5704708  62.9793501  45.3707314  75.3344107  43.6017323  45.8586693
  75.0965452  44.2826653  46.4879417  75.7358313  42.9141903  46.3900614
  78.3481789  42.8525639  56.5941668  77.4752426  42.6297951  56.2707615
  78.9389563  42.5932121  55.8870888  59.6642780  73.8958168  27.9691768
  59.8228025  72.9997349  28.2660508  60.4747534  74.3625498  28.1729460
  73.9572620  81.1638355  37.2478271  74.6156979  80.9520531  36.5861320
  73.3887815  80.3942108  37.2749496  40.3740677  35.9820149   4.4683661
  39.4760594  35.7762883   4.2085709  40.7422242  35.1422856   4.7432245
  44.4129992  54.8422146  53.4581518  45.3224230  55.0707197  53.6504316
  43.9670277  55.6849480  53.3736134  78.8394348   2.8671407  22.8898382
  79.2670052   2.6821279  23.7260103  77.9446547   3.1106900  23.1270838
  76.7704153  72.4448538  51.3396454  76.3564014  71.8118477  51.9262695
  76.6361666  73.2908106  51.7669249  39.5639739  15.3769086   8.6489214
  39.7507701  16.0638449   9.2888130  40.2926144  15.4217360   8.0298056
   5.5759335  51.8225479  32.8402257   5.2853490  51.1887693  33.4960556
   5.1698304  51.5272188  32.0253110  11.0099412  75.8828831  63.8353014
  10.0591756  75.9749842  63.8968658  11.2206174  76.1636877  62.9447985
  84.7278555  55.2438046  49.1614638  85.6512316  55.3935219  48.9585386
  84.7047480  55.1450993  50.1132809  44.5956421  49.3063402  64.6153402
  45.2173424  48.5852051  64.7137451  43.7708759  48.9596510  64.9556255
  70.8296013  44.0144777  52.5407791  70.5699873  44.5596600  53.2834816
  71.6082525  43.5489082  52.8460264  77.3811483  25.1903176  64.8666000
  77.3877764  25.7165074  64.0670300  77.4805164  24.2887282  64.5608282
   6.1974145  24.1237402  47.1020079   6.3267422  25.0698209  47.1686268
   5.2645684  24.0222406  46.9129848  56.5402842  79.6655130  42.1789169
  57.4344540  79.4241810  41.9371462  56.6464233  80.3830338  42.8035259
  50.6473653   9.3558454  40.2239561  51.0894839   8.7228536  39.6582031
  50.9958713   9.1802548  41.0979939   2.5646210  43.1727600  39.5500660
   2.7981663  42.3548079  39.1111565   2.0919514  42.8967285  40.3353167
  78.9682484  81.3255119  23.5471654  78.1298923  81.4570332  23.9899898
  79.6195650  81.6621971  24.1625261  86.9124031  63.8994503   4.5719489
  86.8438148  63.6007452   5.4787588  86.0266113  64.1828775   4.3454972
  62.5413609  62.5275135  54.5519209  63.1203461  61.7690659  54.6278191
  61.9325781  62.4384356  55.2851915  31.6268063  57.1476221  24.0150332
  31.4817906  57.2973728  23.0808091  32.4635983  57.5744486  24.1989613
  74.7664547  64.7990751  58.1066322  75.5673075  64.4640303  57.7033758
  74.5648718  64.1689301  58.7983799  77.0887232  72.5931597  24.5201874
  76.6409874  72.4356794  23.6889434  76.3816404  72.7151966  25.1537275
   5.0616646  63.1100464  52.2352648   5.6617165  63.5285234  51.6179800
   4.8851109  62.2506762  51.8524551  64.4961596  72.3101187  28.7964749
  64.4134521  72.6636505  29.6821427  65.3250360  72.6638174  28.4738374
   9.4929791  56.9814920  13.3155465   9.6902180  57.1565819  14.2356956
   9.8476315  57.7368593  12.8466368  19.4697190  77.8154659  24.2705846
  19.3495560  78.7641907  24.3120074  18.8872147  77.4704933  24.9472833
  59.8382902  77.4948359  47.3311949  59.3363857  77.8640699  48.0578232
  59.7467327  78.1361771  46.6265440  82.7222252  54.9586105  29.1494036
  82.7943802  54.6480846  30.0519538  83.2136536  55.7799625  29.1386914
  81.7536259  51.0180521  50.5232859  81.4120579  51.8542147  50.2064276
  81.0699081  50.6848001  51.1044121   7.1129513  64.6725845  30.9540939
   6.3637353  64.2416048  30.5427957   7.0326996  65.5907249  30.6956172
  79.2948008  42.6954031  54.0534210  79.1248846  42.4433231  53.1457758
  79.9699926  42.0847702  54.3491983  81.2469769  13.9922833  50.0572443
  81.5070057  13.0911016  50.2482700  80.2975750  13.9985406  50.1789570
  34.5077691   6.8559525   9.0223135  35.0873742   6.9164870   8.2629551
  35.0391707   6.4317248   9.6960129  75.1223230  58.4973574  36.3176513
  75.0359726  58.5321331  35.3649879  75.9157228  58.9991188  36.5047002
  44.0433011   9.3410609   8.2949318  44.0510115   8.5273717   8.7990011
  43.5717806   9.1206954   7.4916042  16.3687039  46.6495848  44.8664331
  17.0795727  46.7174053  44.2290115  15.6684113  46.1964130  44.3969059
  48.9881325  54.3795872  41.6050768  49.1400385  55.1001024  42.2166443
  48.1126642  54.0603065  41.8238163  80.8757822  62.0727395  13.5664620
  81.1690609  61.7748521  12.7053608  80.6408445  62.9912900  13.4349217
  79.2936182  79.3490791  36.5067840  79.8934031  78.7493563  36.0631442
  79.0909195  78.9154482  37.3357058  75.6458044  45.3973055  28.6309743
  76.1087990  45.6677961  29.4238806  76.2061501  44.7245455  28.2441425
  55.0543213  79.4076014  48.7389612  54.7358894  78.7494087  48.1212139
  54.5258760  80.1842213  48.5550117  18.0441992  17.2658109  31.0735059
  18.4665864  16.6968774  30.4299688  17.1092217  17.0858716  30.9751534
  44.4491053  70.6066895  46.1791420  44.0743017  71.4814043  46.0760593
  44.2929983  70.3859138  47.0973587   1.7762948  59.7586727  27.5837207
   1.4165211  59.6918583  28.4682202   1.9501115  58.8531256  27.3268199
  40.2455997  68.0895329  42.5984097  39.8763895  68.0636263  41.7156649
  40.2879715  67.1718645  42.8673315   5.5257647  11.0242127  55.7422972
   5.2058356  10.8413362  56.6257191   4.7717421  11.3993215  55.2873611
  53.2314301  54.0596104   9.9164957  53.2610273  54.9200153  10.3349018
  52.3301268  53.7629128  10.0424385   4.1977971   1.0911225  50.1350880
   3.3999627   0.6922292  49.7878551   4.0079205   2.0291089  50.1540756
  68.8126850  79.5269012  61.3367796  69.0906858  79.8021841  60.4631853
  67.8627396  79.4321346  61.2670469  54.3431425  64.9488688  58.1265879
  54.6486282  64.7673750  59.0153933  54.8167849  65.7392025  57.8672409
  79.2302895  69.4508648  57.9759216  79.5489120  69.4390392  58.8784599
  78.2768822  69.4703960  58.0587435  61.5919495  47.8540087  32.2002029
  60.7415485  47.9376507  32.6315403  61.4269829  48.1122398  31.2933755
  28.9740754  14.1182280  24.2807388  28.0199910  14.1054821  24.3567753
  29.1835023  13.3408368  23.7630153  47.8386688  46.3385344  17.0566523
  48.1576633  47.0910072  17.5549078  48.6109066  46.0125017  16.5945041
  21.1489923  36.9850899  68.7642631  21.8244083  37.1160437  68.0987580
  20.3809031  37.4399306  68.4187300  67.8919554  41.2862825  44.5918226
  67.1854973  41.0247660  44.0012646  67.4434376  41.6196966  45.3689289
  72.5424719  69.3288898  22.2307825  73.3011103  69.0286350  21.7302346
  72.2954512  70.1564360  21.8180132  82.4986553  48.4825325  23.0398822
  82.4753761  48.5388470  23.9951396  82.9868889  47.6792955  22.8591299
  47.0287180  69.5178604  69.1434908  47.7046061  68.8411665  69.1049099
  46.8427753  69.7231722  68.2272482   0.3608037  64.0941620  42.9306412
   0.1776887  64.8992920  43.4148598  -0.5029582  63.7355423  42.7268267
  45.6225436   4.7857999  15.6087458  44.9692290   4.8974847  16.2993538
  45.1134627   4.7659825  14.7983909  57.5797129  47.8894520  55.3977394
  56.6680574  48.1437874  55.5406618  58.0395937  48.7167072  55.2549553
  45.9349387  10.9529828  46.6407824  45.0943320  10.9937715  46.1847544
  45.8401625  10.2232503  47.2529411  62.7088785  28.7258148  27.4921107
  62.5785637  27.9372120  26.9654655  62.0896626  28.6351705  28.2163906
  58.6325169  51.4744520  43.6052942  57.8288603  51.4921904  43.0856228
  59.2907476  51.8820858  43.0424404  30.1068339  55.5713627   6.0623755
  29.5299229  56.3346837   6.0899891  30.8343491  55.8411477   5.5018677
  10.2674070  80.8155753  66.3235818   9.7704474  80.2972510  66.9565137
  10.2781120  81.6985967  66.6928951  19.1777230  55.3491688  31.2408113
  18.3481312  55.4762745  31.7010832  18.9491940  55.4120874  30.3134251
  72.6634407  71.9008017  21.6207933  72.3237324  72.5386906  20.9931564
  72.3864698  72.2337770  22.4743986   4.7438145  61.3498402  48.8077879
   5.5528546  61.5549803  49.2764139   4.1977597  60.9050035  49.4560003
  78.3619452  74.9962759  41.8938017  78.8753271  74.4397593  42.4794292
  77.5500011  74.5096684  41.7516851  54.1371918  59.8578835  53.1545687
  53.2419634  59.9947882  52.8446388  54.4363213  59.0786409  52.6860285
  64.0327406  71.1055946  10.5445993  64.0209961  71.3663626   9.6236795
  64.5269251  71.7980766  10.9833288  22.7427697  79.0796995  15.7245147
  23.2666731  79.5075607  16.4017832  22.0430017  79.7040606  15.5328739
  83.0310631  76.5395117  23.9815068  83.2990646  75.6307554  24.1177750
  82.8292274  76.5921831  23.0473137  49.6733999  60.4524231  64.5934772
  49.3843555  61.1565065  65.1739454  49.1480494  60.5643225  63.8011885
  65.0416613  45.5337954  35.3543115  64.7304249  44.8141098  35.9033227
  64.3047714  45.7295704  34.7756100  70.1450634  48.6534214  32.0491886
  70.3013754  49.2206573  32.8042006  70.1257277  47.7687550  32.4141836
  39.9224663  59.4639683  22.4276996  40.0694752  60.3849602  22.2122955
  40.7980252  59.1136408  22.5917006  58.7979317  68.2394075  68.2430935
  58.3232021  68.5486221  69.0146208  59.4198751  68.9402962  68.0477238
   3.1717683  40.2377319  68.1035328   3.2062627  40.8380890  67.3588037
   3.7659264  40.6216431  68.7483788  59.9981594  51.1064005  22.4992776
  60.1808023  50.4999399  21.7815876  60.3209066  50.6571674  23.2804656
  81.1515522  80.7063389  16.2958252  81.2223148  79.7687197  16.1166728
  80.5840111  81.0407162  15.6013310  29.4740319  25.9422970  56.3014317
  29.7912097  26.8422675  56.3767958  28.8742614  25.8370829  57.0399666
  85.5581570  30.8185744  65.1095152  84.8857021  30.6475186  64.4501352
  85.2381420  30.3793764  65.8975029  60.8480167  35.0128365  51.7046165
  60.8342934  34.8331141  50.7645416  60.2134037  35.7196379  51.8226290
  24.5881217   7.2006463  63.3318758  24.6682208   6.5145253  63.9944935
  24.5667689   6.7284535  62.4995232  85.6496620  34.8791981  69.4293642
  85.3512001  34.1754889  70.0055075  84.9122906  35.0344586  68.8390970
  55.7062769  78.4379244  57.5910139  56.4629459  77.9548931  57.2588062
  55.2055597  78.6667252  56.8079662   2.0603221   4.3196725  57.8200531
   1.8670075   5.1958608  57.4866581   2.7064412   3.9676141  57.2078323
  83.9858150  63.2410240  56.7384863  83.2030964  62.6937008  56.8018866
  84.3994331  62.9733229  55.9178257  40.1576028   1.6945717   8.4154524
  40.5873379   1.4931700   9.2467179  39.4916091   1.0138486   8.3190216
  64.0317774  54.4494820   1.8480158  63.1415558  54.7785616   1.9722876
  64.2092228  54.5843697   0.9171285  29.6002906   6.7910337  16.3253927
  29.2197745   6.0622453  16.8156099  29.3092482   7.5730561  16.7943990
  65.8290100  79.9376106  45.5881786  64.8823690  79.8182297  45.5116701
  66.0991955  79.2950916  46.2442303   3.8638688  79.0968752  49.8511982
   4.4665147  79.7552967  50.1969337   3.9908505  79.1303158  48.9030504
  76.8171740  72.6330853  63.5264969  76.6843224  71.8143606  63.0487156
  76.7026567  72.3948240  64.4464684  38.6794098  48.2925011  63.0777286
  39.0169485  48.8339783  63.7912409  38.9808090  47.4079682  63.2850949
  60.7540560  69.2004156  59.6131897  61.0842609  68.7557650  58.8324928
  59.8785305  68.8362789  59.7439337  69.8112249  69.3183565  57.9867983
  69.5553255  70.0188351  58.5868645  69.3771887  68.5377026  58.3309317
  56.5405750  56.6632605  51.5038300  55.6481647  56.9555378  51.6893148
  57.0424891  57.4725866  51.4073420  74.5803070  58.2584143  12.9546750
  75.0425720  58.9871359  13.3688092  73.7694311  58.6456203  12.6248550
  69.5922565  67.8775787   4.6004322  69.9733448  68.5112667   3.9926100
  69.6924829  67.0334482   4.1604003  73.3752394  16.3170433  51.7988157
  74.0946722  16.9260752  51.9653273  72.6250887  16.8794668  51.6059828
  29.4272082   1.3130712  36.7259860  28.7406199   1.8057775  37.1755123
  29.2544882   1.4560937  35.7954240  18.4652806  76.2078810  67.2990036
  18.3189011  76.0200596  68.2261086  18.3410836  75.3656387  66.8614769
  82.7450943  47.6959944  30.1590919  83.2475185  48.4940624  29.9951172
  83.4079647  47.0154667  30.2761674  83.5529232  61.8876123  53.0993414
  84.2501545  62.1702528  52.5075483  82.8807354  62.5642014  53.0179310
  10.1443959  53.2321882  49.6080446  10.7187844  52.9780054  50.3303289
   9.6855260  52.4260378  49.3718481  69.5086670  60.1173973  41.7722082
  70.1273727  59.4020939  41.6246271  68.6467600  59.7077131  41.6979599
  63.8689995  38.6250639  45.9598923  64.1840076  37.9745269  45.3323555
  64.4310427  38.5104394  46.7261839  16.3529778   9.2985946  26.8367934
  17.2344113   9.6480310  26.9679117  15.8322049  10.0561750  26.5701389
  65.9864426  52.5962830  42.4593163  66.1005831  52.4751949  43.4019375
  66.8712139  52.7521515  42.1289825  42.9921763   8.9378022  33.9506269
  42.7197974   8.0204438  33.9727283  42.2645800   9.4134091  34.3514276
   7.1956921  58.6371708  26.1164427   6.9123173  59.4963121  26.4291811
   6.4906789  58.0436325  26.3751101  38.6859059  57.0001745  55.7759428
  37.8291535  57.0166826  56.2024784  38.6303520  57.6763296  55.1006937
  65.3492403  49.4332838  45.7046604  65.1907539  48.8303185  46.4309883
  65.9503937  48.9613247  45.1283836  80.1682568  73.8374758   7.1564752
  80.9691715  73.6479616   6.6677415  79.8907995  72.9882860   7.5001681
  63.9030075  69.1541386  45.3989363  64.0183735  68.7695885  46.2678671
  64.3440723  68.5448837  44.8069048  30.0848866  62.0005226  32.3683333
  30.6824589  61.3166523  32.6707673  29.9734593  61.8251705  31.4339519
  83.9817905  75.1347303  47.2161579  83.9964485  74.2292738  47.5262594
  83.0742645  75.4143715  47.3362732   1.7328740  65.8144808  39.4828224
   1.6603566  66.5334225  40.1105928   2.6570988  65.5667162  39.5081282
  80.0037861  48.0850840  41.5743256  80.2768612  48.6301851  40.8364058
  80.1289940  48.6419725  42.3427200  23.4069483   4.6659993  55.8791828
  22.6405757   4.1565465  55.6157970  23.3010810   4.7874593  56.8227291
  43.8845253  24.2988062  57.5488377  43.7985706  24.0179777  58.4598684
  44.8258162  24.4186187  57.4229288   3.3964062  27.2860694  48.8677645
   2.7655888  27.4081850  49.5772600   3.7879086  28.1507182  48.7439013
  85.2505915  81.0329841  13.2073177  85.8116333  80.5569814  12.5950398
  84.4929497  80.4614161  13.3318676  46.3867235  58.3979893  43.0969572
  47.2747612  58.5750198  42.7866650  46.4700651  57.6000881  43.6191034
  64.9129581  47.4735308  47.5408792  65.2490807  46.5778685  47.5085783
  64.2610884  47.4595976  48.2416677  68.0428839  63.5772991  32.2116327
  67.1235323  63.7098598  32.4428368  68.0498171  63.5652113  31.2545347
  77.0866966  60.5194044  70.5138826  77.2975445  61.0206938  69.7261763
  76.6254187  61.1409616  71.0770178  56.0798788  69.9481201  59.9533749
  56.0113287  70.1719666  60.8815050  55.1775169  69.9688435  59.6347189
  31.5319865  35.9897470  18.2514596  31.9524901  35.4359674  18.9092934
  30.6076186  35.7437181  18.2867229  64.8301029  76.1559772  60.5367041
  63.9230585  76.4491272  60.4497337  64.8230314  75.5785084  61.3000584
  67.0664215  45.4275846  27.7411652  66.1551476  45.2039146  27.5520086
  67.5229406  44.5862961  27.7486873  82.3448372  24.5271420  61.1410189
  82.7233124  23.9998960  61.8445778  81.4798450  24.7758460  61.4668512
  75.6466476  11.7640637  23.8789129  76.4564840  12.2085141  23.6281967
  75.8654301  11.3079881  24.6915364  14.8369822  41.0516236   4.7506298
  15.2489361  40.2131436   4.9591030  14.9273476  41.5684960   5.5512013
  82.2998619  39.3886924  13.7287354  83.1785774  39.7682428  13.7217629
  81.9363880  39.6104050  12.8714371  19.7161103  61.2352800  50.1093864
  19.4720078  62.1603918  50.1379728  19.2104340  60.8322239  50.8151197
  37.1517119   6.8700049  21.8394055  37.3663840   6.2272332  22.5154175
  37.0339522   6.3507626  21.0439552  64.7089577  67.6654959  47.7216578
  64.7564316  68.0776453  48.5842752  65.5966902  67.7399158  47.3714733
   1.5575982  47.3669767  25.3467321   1.7029668  46.5649939  25.8486533
   1.2969113  48.0151224  26.0010862  53.1915951  75.5024815  34.2776680
  53.2629442  75.1792812  33.3795142  53.4134865  76.4315748  34.2162180
  14.5768929  54.7714520  56.6177988  15.3628255  55.2167702  56.3011980
  13.9444447  54.8665094  55.9056187   4.4348758  61.9437170  37.3965597
   5.2274710  62.3189163  37.0128274   4.5938969  60.9998226  37.3995590
   8.8558961  34.1960001  57.3544836   9.7011471  33.9377427  57.7220297
   8.9994717  35.0826192  57.0235348  53.1917684   2.0002221  17.0824003
  54.0126292   2.0276784  16.5908062  52.7804796   2.8470468  16.9092870
  53.8506031  60.3465223  70.0139284  53.1312037  59.7474289  70.2133799
  54.5342922  60.1178598  70.6436253  76.9554520  76.6752338  60.6803799
  76.5469170  75.9664249  61.1772966  77.6952314  76.9515324  61.2213230
  80.3935759   0.5759954  39.8389482  79.6114389   0.4233121  40.3692102
  81.1136524   0.5790662  40.4695940  80.9630013  47.2563934  60.0835228
  81.8793869  47.5044727  60.2056694  80.5192757  48.0769587  59.8690128
  42.4678652  26.6993474  64.5931196  41.6642611  27.2162961  64.6498680
  42.3346274  26.1321019  63.8336992  69.4212103  40.0093603  51.4754391
  70.0813293  40.2049208  52.1404409  69.9100494  39.9841237  50.6528616
  74.7401857  76.7782927  30.8227253  74.4897223  76.1185026  30.1760578
  74.6862268  77.6091290  30.3504610  12.7239030   1.9930791  23.8305426
  11.7811673   1.8764447  23.9483166  13.1200068   1.4192914  24.4863725
  25.6939683  47.7490876   5.6217112  26.3637671  47.9470704   4.9671854
  26.1333642  47.8816006   6.4617123  57.5046158  77.2170830  34.8669791
  58.0871868  76.4688158  34.7368360  56.7271042  76.8456364  35.2838039
  50.9884009   9.8010562   0.8865465  50.7166085   8.9780018   1.2926735
  50.4007134  10.4579089   1.2599148  67.0440531  77.2815609  18.2742393
  67.8814125  76.8310976  18.1640482  66.8187046  77.1464539  19.1946709
  72.7647161  39.5741248  19.9318469  72.3131990  40.2882051  20.3817868
  73.5784483  39.4584632  20.4224563   4.6211243  45.4836941  51.9972944
   3.8202382  45.2381754  52.4604750   5.2905846  45.5222940  52.6803446
   0.0205804  32.4686456  30.8130717   0.5297185  31.6838121  31.0156775
  -0.3351688  32.3045182  29.9397230   5.1168633  50.4217434  35.2820611
   5.6709862  50.5757856  36.0472083   4.9912644  49.4729853  35.2644014
  44.1951990  79.3645096  46.9127798  45.1258183  79.4303751  46.6986799
  44.1735888  78.8895035  47.7435255  73.6181817  35.5105708   3.0380930
  74.3459115  35.0002024   3.3932985  73.9137158  35.7748053   2.1668448
  68.6837101  53.5147047  34.2655158  67.9549170  54.1352510  34.2627406
  69.0057278  53.5194159  33.3641195  66.0696888  54.3045473  52.7497101
  65.5814981  53.7306023  53.3400345  66.3791943  55.0165796  53.3095789
  86.3827419  54.0419579  54.1477108  85.7818317  53.4469652  54.5961666
  86.6502190  54.6658230  54.8226023  19.3257229  74.1288780  22.2778000
  19.3907349  73.6761759  21.4369263  18.8581460  74.9397873  22.0777287
  14.0731145  51.2936068  16.5583909  13.8612939  52.2065496  16.7530477
  14.0814877  51.2482786  15.6023014  54.1612625  80.1900196  59.1762304
  53.4334707  80.5971336  58.7063313  54.4338083  79.4649887  58.6138391
  70.7861471  58.8603210  38.9939976  71.2772512  59.1123819  38.2120037
  69.8748207  59.0588760  38.7788463  49.8049498  63.5044479  47.2475243
  50.2323484  63.4421635  46.3933086  49.0668535  64.0966320  47.1034336
  56.4802694  52.7847433  69.0096855  56.5414906  52.8132915  68.0548716
  56.6064596  51.8618965  69.2302942  82.4060345  52.1691656  35.7189775
  82.2391319  51.7769957  34.8619032  81.6886902  52.7909374  35.8416581
  71.4787960  63.3883047  36.1354351  70.8409929  63.0318069  35.5170918
  72.2505188  63.5768795  35.6014729  69.7999716  65.7770729  18.1520581
  69.2123890  65.1581955  18.5856152  70.0277472  65.3520107  17.3252118
  69.3248741  72.3363184   6.7635311  68.7801210  71.9718813   7.4611439
  70.1510708  72.5552844   7.1944441  78.4625483  75.6533813  34.4684720
  78.0311441  76.2261629  33.8344002  78.4114885  74.7813606  34.0770578
  81.7461872  52.6858711  27.5666142  81.1665630  53.3861637  27.2668576
  82.4059868  52.6095676  26.8773532  15.6750378  21.4550755   5.5581917
  14.9270138  21.9104598   5.1717724  15.3663001  20.5591700   5.6933369
  58.5423946  75.1684904  17.2783411  59.2191076  75.0481367  16.6121507
  57.8331423  75.6196928  16.8205106  60.4263353  56.2915897  45.2704811
  61.2887430  55.8768845  45.2930212  59.9928713  55.9863138  46.0674381
   8.0828660  68.6927007  35.5083813   7.8512805  69.6182417  35.4310955
   7.9536479  68.4900354  36.4349140  51.3155556  57.2724915  54.3039179
  51.1184072  57.8718710  53.5841179  51.4485550  56.4246511  53.8799953
  27.7741814  33.5896039  52.9083061  27.7330113  33.1866097  52.0410490
  27.2282220  34.3723941  52.8348303  59.2926106   6.8637774   2.1826042
  58.9576707   6.0364649   1.8367685  58.5684189   7.2185156   2.6982989
  70.4167835  11.7296170  53.6820984  70.3663342  12.2676992  52.8920650
  69.6259777  11.1909341  53.6559010  75.4125786  72.3804998  36.6093302
  74.6274996  72.1098614  37.0853972  75.9486437  71.5889168  36.5617728
  14.6125929   9.4739579  54.5853090  14.0569489   9.0284776  53.9457512
  14.1002553  10.2347993  54.8589325   3.5959435  56.9535828  66.8389082
   3.0539227  56.3383389  67.3327923   3.3383847  56.8207836  65.9266233
  79.7447968  56.7728662  58.2958794  80.4126453  56.3273811  58.8171816
  79.8489428  56.4129162  57.4150753  69.4999599  43.3256483  50.3777552
  69.7738791  43.5741854  51.2606049  70.0874186  42.6091194  50.1375198
  55.2243853  48.1251478  63.1400299  55.9224367  47.8429317  62.5490093
  54.4178581  47.8351593  62.7138186  16.5710259  26.1783528  40.6224489
  17.2941876  26.8050909  40.6006622  16.2842179  26.1752343  41.5356636
  79.9878168  65.7984114  53.6157036  79.6189976  64.9350023  53.8020563
  79.3968582  66.1757326  52.9640675  72.2917637  35.0412152  21.7333664
  72.2417912  35.8121274  21.1681904  71.9314847  35.3341363  22.5704064
  14.1356557   3.9819097   2.8999659  14.7676222   3.3012818   3.1314686
  14.4980137   4.7835206   3.2772580   6.5324116  38.7587118  38.1014657
   6.6966439  38.3073878  37.2734737   6.3796139  39.6699357  37.8513551
  78.4677172  76.2389517  54.1587877  78.7919617  75.3935480  54.4692469
  78.8557482  76.8783331  54.7561598  23.0097375   9.2997143   9.4342770
  23.2313761   9.1639969  10.3555264  22.3227009   9.9660466   9.4488777
  63.6981344  58.2294512  46.1037588  64.4771481  58.0311012  45.5841208
  63.9529800  58.9798641  46.6405678  17.5199429  65.1026251  60.9625713
  17.7076260  65.0770023  61.9008414  18.2430903  65.6050780  60.5872975
  65.1267991  43.2172654   4.3652548  65.7504353  42.5863812   4.0056862
  64.5529542  42.6943181   4.9251331  26.5630000  21.2951707  34.2493320
  26.0200732  21.5327119  35.0010180  27.4298422  21.6416406  34.4609451
  25.4138550  51.1163781   7.5485672  24.7239098  50.6890271   7.0410360
  24.9565348  51.7839692   8.0598511  70.3855133  70.5609417  40.5342102
  70.7247162  71.4554071  40.5010128  69.4376326  70.6608200  40.4460049
  64.8310757  75.5876637  42.3596239  65.1989222  75.7437611  43.2294226
  64.7622156  74.6350574  42.2961283  72.1833181  22.5418043  47.8496027
  71.6553259  22.4110031  48.6372232  72.1033239  21.7183757  47.3681498
  42.8714261  44.5664952  10.2828087  43.0951390  43.6489556  10.1269116
  42.7470193  44.9346612   9.4080414   4.8638726  67.8451061   1.5906329
   5.3482724  67.3933506   0.8996157   4.6541405  68.7006474   1.2160735
  82.3296928  72.3436785  29.4364500  81.7499161  73.0074644  29.8099232
  83.1903839  72.5426912  29.8050094  82.7391052  70.4339457  35.4432845
  83.0832767  70.8438396  34.6497059  82.4452877  69.5688105  35.1578999
  76.3743591  52.4856567  67.7418280  76.1277199  51.8332291  67.0862818
  77.1145725  52.0926046  68.2042360  45.6499419  26.3022254  17.2156586
  46.1963925  25.8883879  16.5475525  45.7519469  25.7451174  17.9873242
  48.3869553  59.7981977  48.9352751  48.2310486  60.6692791  49.3001652
  49.2577791  59.8555756  48.5420752  46.7536497  61.5613747  20.9586239
  47.5536585  61.6180229  21.4811301  46.7629004  60.6731415  20.6019902
  19.0426732  62.2757959  59.7000504  18.2476617  61.9053555  59.3166924
  18.8289357  63.1964159  59.8517323  57.5404215  41.9614267  64.1264677
  57.6735353  41.5557480  63.2697678  57.4289656  41.2236977  64.7261047
  57.2193003  61.4829302  60.7085991  57.0413399  61.7883015  61.5981531
  56.3823080  61.1326408  60.4036760   2.2621442  60.5524921  33.0455852
   2.1773339  60.9609795  33.9070845   2.2002030  59.6131325  33.2187724
  78.7315798  26.4799023   4.6056190  79.6199894  26.7814469   4.4158185
  78.2444954  27.2796297   4.8041558  12.1710492  63.0789375  42.2556305
  12.5734807  63.9238739  42.0547199  11.4725972  63.2877684  42.8759432
  10.7021046  63.8053036  67.4727297  10.4504967  64.4233751  66.7864990
  10.6444169  64.3109655  68.2834101  66.5963793  70.7876062  30.8674955
  66.0180235  70.2673483  30.3097558  67.0303202  71.3917351  30.2650380
  30.5491679  75.8512090   0.3900017  30.3287833  74.9463342   0.1689495
  30.7221453  76.2685870  -0.4538618  14.5146275  76.4657402  26.3537121
  13.9323807  75.7362986  26.5661931  14.2957497  77.1416044  26.9952202
  69.6544313  68.1922007  41.3759232  69.8743534  69.0981770  41.1589575
  69.4459248  67.7880573  40.5336475  23.5908263   5.5575990  35.5010104
  23.3644145   5.1804017  36.3511252  24.1242545   6.3235330  35.7132387
  76.3185167  64.4932365   7.7037591  75.6254816  65.1089811   7.9420805
  76.7759895  64.3175602   8.5260028  78.1722450  57.9634285  34.2418146
  77.7868462  57.3107624  34.8263884  78.7985945  58.4359407  34.7901273
   8.9711993   4.8462152  66.1538267   8.5981887   4.0796804  65.7184887
   9.8576920   4.9151944  65.7994175  54.2421293  59.2253542  26.8527389
  53.3637381  59.0040970  27.1620941  54.1086531  59.9680996  26.2638831
  79.4410563  77.3541212  56.7146730  79.9073219  77.2282743  57.5411034
  78.5328865  77.1277189  56.9151688   4.8600293  67.2854519  32.1666956
   5.0885106  67.4789476  31.2575269   5.6982709  67.2822475  32.6288342
  69.8552322  51.8354654  68.1856489  69.5959091  52.6279640  67.7156115
  70.4542732  52.1451187  68.8649893  22.2928183  22.3242044  36.5030456
  21.3570588  22.3738526  36.6983080  22.7084391  22.1901368  37.3548174
  81.7174530  64.3930292  43.8716269  81.0328293  64.7006416  43.2775736
  82.0770264  65.1920795  44.2569208  57.6230867   3.6131026  66.7099832
  57.5471266   3.2623269  67.5973500  58.1487616   2.9653765  66.2405752
  38.5971778   8.1976556  60.1885557  38.7432521   8.7250089  60.9739161
  37.6650565   8.3039998  59.9985981  77.3812096   2.9530286  27.2837043
  77.3493139   2.2206735  27.8992271  76.4882032   3.0210065  26.9458413
  71.0135841  73.9954662  48.3274126  70.8357048  73.2061434  47.8159857
  70.3309059  74.6117115  48.0620384  67.8481197  43.9367819  43.6066914
  67.8260946  44.2353487  44.5158720  68.2971907  43.0922318  43.6427546
  17.6057856   5.1214933  41.7592192  17.8326028   4.2126035  41.5624666
  17.0128148   5.3786038  41.0531616  80.8992195  57.2030497  27.1941662
  80.3448486  56.4261246  27.1214747  80.4808617  57.7331877  27.8725171
  76.2462330  73.0658865  66.2795973  75.5980635  72.4382401  66.5992260
  77.0870638  72.7077532  66.5641737  72.6471376  64.1676903  46.7468786
  72.0567417  63.8747072  47.4410152  72.8524017  65.0746202  46.9739819
  13.6046689  27.2913217  37.8636646  14.5338099  27.0619916  37.8820443
  13.3936160  27.5087022  38.7716460  27.9310172  42.3892068  67.5419760
  27.8882640  41.6400479  68.1362581  27.3215048  42.1707677  66.8369865
  83.6574356  16.9550847  61.7512941  83.0315439  16.5967130  62.3806238
  83.1355898  17.5382470  61.2000847  50.1632977  64.4525146  55.3148174
  49.5026350  65.0279665  55.7003212  50.1103973  63.6478758  55.8305597
  64.2656755  62.8645229  43.1705141  63.9247513  61.9922590  42.9726267
  63.5717821  63.4618855  42.8914022  71.9750118  54.6413422  61.0866880
  71.2392187  55.2533627  61.1032915  72.7206659  55.1708651  60.8041430
  37.7399676  13.1822156  40.2576685  37.4624388  12.9668092  39.3672705
  37.0123618  13.6880158  40.6195784  76.5074587  76.9623184  33.0699205
  76.0304165  76.4942789  33.7551951  76.1249828  76.6444921  32.2520375
  25.0962489  16.6658162  31.4795566  25.2876227  17.5791787  31.6925693
  24.9048464  16.6736268  30.5417204  67.1276760  62.6687670  50.0803137
  66.5818977  63.2377386  50.6231117  66.5965271  61.8837357  49.9467611
  59.6541731   7.9576348  33.2044125  59.0745680   7.2472619  33.4794617
  59.0749495   8.5860871  32.7733970  27.9770566  12.4444187  44.8303795
  27.9078103  11.5599906  44.4709063  28.7301350  12.4050641  45.4199171
  10.9328366  42.3322964  37.0390439  10.6043626  41.4517164  37.2204804
  10.5294610  42.8816080  37.7111816  74.4516611  75.1353645  41.6826153
  73.7499475  74.6191359  41.2859583  74.0952539  75.4163837  42.5253677
  15.2608102   0.5863332  44.4891787  14.4178622   0.9757947  44.2568254
  15.8427279   0.8271169  43.7683296  30.9830706  10.6753396  27.9161239
  30.4848807  11.4886808  27.8354311  30.9537642  10.4681825  28.8501787
  73.2683794  11.4278173  18.5827744  72.9277937  10.7808065  17.9650283
  72.7079813  11.3409089  19.3538964   2.5098038  57.5795746  55.0459719
   2.7703190  57.1648216  55.8683729   1.8103600  58.1842566  55.2937222
  70.6306362  72.9012156  43.6821747  70.6326962  71.9885159  43.9706278
  69.9919510  72.9257727  42.9696369  62.5496197  50.2372408  60.4945183
  63.1424904  49.8943377  61.1632156  62.9435730  49.9684811  59.6645784
   9.2972851  46.6290522  45.1133299   9.7514439  46.8562603  44.3019438
   9.2503739  47.4519300  45.6000519  74.1833305  64.4614267  51.4606094
  73.5240316  63.9010763  51.8699503  73.7030602  64.9442863  50.7879877
  38.4490237  12.9917166  21.2072529  37.8349671  12.2691176  21.0767998
  39.3123898  12.5980256  21.0814156  66.3748550  78.8770056  28.9940858
  66.4226246  78.5801268  29.9028277  65.4897261  79.2300034  28.9036512
  82.9633808  68.5098124  58.7874079  82.7008152  68.8570070  57.9349184
  82.1506977  68.1834364  59.1737318  75.5737972  57.3470163  28.9468336
  75.1188755  57.9895878  29.4912457  75.9511995  56.7279482  29.5717716
  49.7106552  66.1952114  31.9437218  49.5394707  65.3565216  31.5153241
  50.5173826  66.5115976  31.5371251   9.9588681  43.3936453  55.7789898
  10.4178525  42.5736952  55.9613323  10.3545476  43.7145233  54.9686146
  63.7754195   1.3611268  65.2644444  64.7218459   1.3162755  65.4004765
  63.6700575   1.9246625  64.4979191  49.6474409  56.4511728  56.4314842
  50.1611948  56.8312263  55.7188463  48.7423372  56.6844559  56.2250948
  83.1314413  74.8304771   0.8991017  82.4221889  74.1877149   0.8921732
  83.8218538  74.4197153   1.4195217  21.2999917  71.6687059  46.8351555
  21.0417843  72.5535345  47.0932913  22.0476342  71.7980289  46.2515879
  65.7150888  78.3053684  47.7203751  64.8638630  78.6131573  48.0316734
  65.8424282  77.4658298  48.1621790  18.7683964  75.6432867  70.1946545
  18.8247300  76.5987062  70.2098846  18.7891293  75.3874063  71.1167908
  32.4010031  78.6886476  18.5949864  31.4755480  78.7995885  18.3771576
  32.8689044  79.0222906  17.8294815  74.5742321  52.9262781  47.7718544
  74.4859552  53.4139967  46.9529676  74.8770714  53.5760307  48.4061575
  17.5851147   7.3994493  33.6104989  17.7506440   6.4712762  33.7757850
  16.6729109   7.4324559  33.3223534   1.8605034   9.5057534  50.4669380
   2.0653527   8.7300824  50.9890509   2.7066987   9.9308538  50.3273821
  86.6112614  75.3621006  46.2037420  85.8864594  75.2648592  46.8213463
  87.3011780  74.7982121  46.5534210   2.7246285  64.9875355  25.8227348
   2.1464158  64.3654633  26.2642407   3.5719491  64.5436239  25.7876706
  12.7628224   2.7673387  54.7718906  13.7030356   2.6444005  54.9027395
  12.5449650   2.1884870  54.0413427   6.4015771  57.8978539  34.4611549
   6.1764336  57.2687769  33.7757325   6.9151974  58.5686779  34.0112472
   8.7745993   3.6169576  16.6582394   9.3032353   3.4351777  17.4352455
   8.1337111   2.9064225  16.6329885  10.5023329  33.4846353  35.3973031
  10.6787818  34.4117307  35.5572724   9.8492472  33.4823941  34.6975112
  64.4228458  52.0706844  46.5275240  64.4783640  51.1823559  46.1753559
  64.7285032  51.9896984  47.4309874  68.4485039  20.3009627   1.7539467
  69.1495976  20.8173916   1.3564648  67.8894410  20.9475730   2.1847405
  68.9680481  32.0421076  67.9120588  69.3129444  32.8504086  67.5326824
  69.7461510  31.5317035  68.1362867  54.9150929  46.5960095  13.3889736
  54.8654256  45.6524155  13.5419239  54.3464265  46.9773362  14.0578903
   3.9272111  77.4282955   1.4932551   4.6482222  77.9928015   1.2144913
   3.8785212  76.7511414   0.8184780  64.6815205  50.3381491  41.4181280
  65.2370214  49.5745897  41.2611961  65.1118755  50.8041620  42.1349669
  60.7997990  52.2829199  25.8597422  60.5710840  51.4662695  25.4158878
  61.7370367  52.3895550  25.6971169  18.0742837  34.4069743  58.4911346
  18.6394978  34.6966505  57.7749920  17.3547936  33.9479280  58.0577326
  46.3926737  12.4659394  21.1082840  46.2245028  11.7051267  20.5523109
  46.7425769  12.0972299  21.9193625  68.2427216  71.5775967  33.1905222
  68.0158138  70.7066393  33.5163784  67.9258633  71.5854549  32.2873211
  69.4607735  71.0572052  21.8506861  68.5533094  70.7529259  21.8631434
  69.6224356  71.2911034  20.9366894  36.8455887  68.6829472  14.0168953
  37.4681473  67.9703712  13.8723326  36.8862343  69.2030096  13.2143283
  72.8291559  48.4431458  46.8999147  72.9733849  49.3168449  46.5364933
  73.7024879  48.0534267  46.9404221  -0.1616382  79.3682194  63.5246897
   0.2805997  80.0001717  64.0915155   0.3452588  78.5622644  63.6232853
  59.9378920  49.6876287  68.2614756  60.0218916  48.9334106  68.8448572
  59.6647549  50.4042387  68.8342714  78.6402170   2.7090215  35.1991868
  77.7448265   2.6227902  35.5263948  79.1782658   2.2631978  35.8533883
  56.1082888  35.7826424  13.8744247  55.5647278  35.0521207  13.5792804
  55.6376648  36.1429954  14.6260166   7.5028992  77.8633356  45.6855822
   7.9034711  77.4976063  46.4742661   8.1777764  77.7773094  45.0122452
  56.5173149  63.8311529  27.2057533  56.1019611  63.7237215  28.0614257
  56.9461632  62.9914904  27.0405650  10.2093880  18.8421105  40.9548950
   9.5177643  18.3113622  41.3501072   9.8467963  19.1202878  40.1138353
  39.5984786  12.6967382  55.4381323  39.2192595  12.7602338  56.3147116
  39.3028872  11.8474149  55.1102400  63.2909012  61.0290432  28.0612874
  62.9180336  61.9087267  28.1192398  62.5585318  60.4450226  28.2582188
  41.4824566  23.5207102  10.8540501  42.1138463  24.0363429  11.3557495
  40.6762633  23.5628674  11.3683571  80.0441360  75.1318932  61.3068438
  79.4608927  75.2909803  62.0489645  80.9142590  75.0549603  61.6982555
  17.3927157  10.3632878  16.5613472  16.4502900  10.2521276  16.4360249
  17.6926940   9.5148133  16.8874550  16.8718474   9.2467069  41.3832092
  17.7173131   9.4386624  41.7888832  17.0874446   8.7009000  40.6270027
  14.3878651  49.2203188  63.7103319  13.8250733  49.4493484  62.9707050
  13.9703751  49.6337366  64.4659901  86.5219498  71.6114950  26.4476371
  86.6341114  72.4003124  26.9781256  86.7869473  70.8951664  27.0245981
  15.6152344  31.4738584  52.1924305  14.9658776  30.7885718  52.3504114
  15.0977421  32.2679567  52.0588350   4.2536545  64.4013357  39.0637541
   4.7691727  64.3470097  39.8684359   3.9300442  63.5110807  38.9260650
  51.9079154  30.5145406  62.3861408  52.7032511  30.1525353  62.7768135
  51.2410395  29.8444223  62.5360060  20.9212821  40.5118512   7.5609809
  21.6257136  40.8030461   6.9820106  20.7639020  39.6022080   7.3079640
  73.9926958  63.7981224  31.7580295  73.4767723  63.0007601  31.6385794
  73.5945082  64.2300749  32.5137401  83.6981010  56.1655569  65.9522104
  82.8030109  55.8422279  66.0546923  83.8151455  56.7802048  66.6765976
  70.4541159  66.3258314  46.5635824  70.1307774  66.8115902  47.3223448
  69.8894501  66.6042471  45.8425665  80.1583862  50.0498629  19.7614694
  79.8278236  49.9854326  18.8654745  81.0291004  50.4364014  19.6683097
  69.1233540  54.3561840  55.3444672  69.7020769  55.1186180  55.3469658
  69.5928669  53.7007999  54.8284578  66.4654541  52.3069668  25.6865215
  65.6973743  51.8405056  26.0162234  67.0354891  52.3994017  26.4499021
  75.5320930  62.5961161  39.7272205  75.0086880  62.8070879  38.9540648
  75.8779383  61.7211723  39.5508718  83.5682011  34.7353625  41.9745970
  83.8260746  35.4006004  42.6127100  83.5497761  35.2002788  41.1380863
  19.7469847   8.4619474  32.1502757  19.5293753   9.3915128  32.0810699
  18.9594262   8.0580854  32.5148129  16.8587876  47.0429087  31.6168213
  16.2699795  47.4647665  30.9910655  17.2812462  47.7692175  32.0753288
  65.3045321  58.9751816  67.2152996  65.9986830  58.5083437  67.6805449
  64.9497890  58.3296204  66.6040373  32.7943024  28.6418460  17.5475849
  33.2245860  29.1141770  16.8348469  33.4721694  28.0614874  17.8938736
  82.5033569  58.2649899  43.4036875  81.6340828  58.4053040  43.0283117
  82.4443817  57.4108791  43.8317537  27.9713822  41.8524170  15.1790047
  28.7423993  42.1895218  14.7228074  27.6570416  42.5930357  15.6975687
  81.2454033  76.2773800  58.8571739  80.7760048  75.8750868  59.5879602
  82.1430874  76.3761520  59.1744232  24.2655795  70.5958770   6.0960211
  23.8009875  70.2356528   6.8514218  24.2835086  69.8791812   5.4617848
  32.4867575   1.5435266  35.8177447  33.1435816   0.8876752  36.0515833
  31.7087214   1.0335397  35.5923676  23.3399201  75.7711554  56.2140560
  22.7825833  75.2534294  56.7950630  23.2177258  76.6742134  56.5069485
  60.0377369  41.5621042  14.3294585  60.0917339  40.9222746  13.6195755
  59.3000984  41.2662745  14.8629415  39.9887213  23.2787058   3.8758244
  39.6092066  22.9064152   4.6718134  39.5531354  22.8126881   3.1621565
  38.0582509  31.2870858  23.6315121  38.5488686  31.7932007  24.2791046
  38.4671292  31.5083478  22.7947964  13.2138765   7.7662939  53.2391500
  13.7205374   6.9576299  53.1643820  12.3293030   7.5206298  52.9682016
  76.9951820  19.0212107  19.7877395  77.6176500  19.6516335  20.1501346
  77.1589422  19.0379035  18.8447988   4.1807254  54.1289330  38.3381319
   3.7392409  54.4377519  37.5469589   3.7489994  53.3001257  38.5453057
  43.2513714   6.0027397  63.5861063  43.7015343   5.9688371  64.4301653
  43.7821817   6.5965927  63.0552483  72.5291383   8.1136346  44.5934057
  72.6095223   8.9817739  44.9885082  73.2803225   8.0483562  44.0037537
  23.4667166  56.6079093  38.2319832  23.8584192  57.1666289  37.5606894
  22.6356180  56.3234068  37.8517628  51.3145971   4.6118522  63.4929609
  50.5739737   4.1725534  63.0749559  51.8480062   4.9282259  62.7638388
  67.3127022  34.9821266  68.4997263  66.5435329  35.5001160  68.7369992
  67.2619763  34.9004503  67.5473671  20.8004721  70.3399552  41.3734198
  21.3182600  69.7842551  41.9559336  19.8981388  70.0483180  41.5037060
  52.6551397  77.5129778  45.5095100  53.3447226  77.4006520  46.1637974
  52.2060926  78.3170415  45.7704210  57.6949652  68.3888615  45.4637003
  56.8232401  68.4596468  45.0746965  57.5557955  68.5575057  46.3955927
  40.2625847   5.6177145   3.0600175  41.1086798   5.1787925   3.1477800
  39.8377872   5.4908001   3.9083523  79.6271951  69.9519278  16.6562319
  78.9245636  69.3045772  16.5972459  79.4892151  70.3787960  17.5017941
  70.7237244   1.5880835  56.0043812  71.2760925   1.5885980  56.7861271
  71.1860037   2.1518129  55.3841066  25.8521152  25.1559067  31.9667602
  26.5071988  25.2767968  32.6541352  26.2066507  24.4559884  31.4184451
  13.6578424  29.0699626  35.5706906  12.8017195  29.4870425  35.6672716
  13.5120352  28.1605912  35.8314848  28.5476565  22.4723101  22.2340155
  28.0498719  21.6565514  22.1794295  29.4323325  22.2319341  21.9586992
  27.7052458  80.2553501  28.5443020  28.0969580  80.7721887  29.2483377
  27.2229012  79.5625932  28.9955926  30.2907944  23.0335641  41.1006165
  29.7269559  23.5984612  41.6290188  30.8204365  22.5578523  41.7404699
  15.9274204  63.4597183  30.2740097  15.8548172  62.6233221  30.7337952
  15.4767426  64.0849710  30.8416176  14.9001448  42.7350465   7.3291506
  15.6014912  43.1636779   7.8196873  14.3231480  43.4504141   7.0616593
  18.4104975  78.5205148  36.9636035  18.8114555  77.8966109  36.3584542
  18.6878593  78.2250974  37.8308010  49.0207005  16.6761315  22.8896213
  48.8686514  16.2313855  23.7234759  49.0736771  15.9686840  22.2470140
  77.0997136   1.8163519  46.9520283  76.8937426   1.7008576  46.0244131
  76.3486206   1.4421642  47.4125433  86.2802179  70.8984292  58.6223412
  86.0737474  70.1401723  59.1688299  87.2296221  70.9954573  58.6961555
  29.6646698  62.1788062  28.5927558  29.7610767  61.4425732  27.9886866
  28.7406834  62.1644700  28.8422966  71.9204679  18.9601853  61.2024604
  71.4128795  18.1795218  60.9807502  71.5668216  19.6450021  60.6348406
  37.3176384   3.5529143  55.3015041  37.4765539   3.8534456  54.4067097
  38.1075406   3.0648667  55.5340862   0.9663780  68.6282385  20.6980133
   0.1313718  68.9824511  20.3921890   0.8599384  67.6788295  20.6386518
  80.3822334  72.5417269  33.6167383  80.3545172  72.8397054  34.5259523
  79.5584423  72.8493745  33.2386470  24.7241950  13.1938291  43.8218403
  25.4662848  12.5998390  43.7091064  24.7144485  13.7194335  43.0219173
  10.1015913   5.5318606  37.8000093   9.7406584   4.6512252  37.9021883
  10.8846307   5.5351388  38.3505273  74.5416219  76.0605104   6.7322046
  74.7267217  76.7493159   7.3705745  75.3814692  75.6189758   6.6059697
  34.2213297   8.3828843  35.0098300  34.1401911   9.2333096  35.4415989
  34.1871834   7.7471447  35.7246017  66.5219380  52.0145632  12.6840520
  66.7946071  52.5514365  13.4281290  65.9132243  51.3777662  13.0584693
  68.5973389  52.0693279  47.1306133  69.2165227  51.5040327  46.6687870
  68.3985884  51.5967894  47.9389668  18.7213667  52.2717572  43.1011772
  18.9777525  51.3497306  43.1203794  19.5429380  52.7462078  42.9740953
  21.7427039   3.3627704  27.4828696  21.2189460   4.1639605  27.4849367
  22.3746181   3.4878904  28.1908679  25.6314524  75.0636656  22.5113392
  25.5493505  75.8606131  23.0351377  24.7573050  74.6740861  22.5293684
  24.8560675  72.0835573  10.1749241  25.3163536  72.4359424  10.9366274
  25.1016434  72.6659746   9.4560969  72.0344749  51.9187202  60.6108414
  71.6389671  52.0948579  59.7571550  71.9388929  52.7399983  61.0931276
  24.8335464  18.6903954  40.1717377  25.3360947  19.1380073  39.4910622
  25.4963215  18.2927133  40.7363701   0.9156545  71.9334067  62.9589128
   1.6961105  71.8882204  63.5112524   0.4711516  71.0981120  63.1035900
  30.9456396   5.8359832  61.8969727  30.1268601   6.1522645  62.2788095
  31.2816739   5.2084559  62.5369120  28.2984781  10.7718241  15.5111444
  29.1133595  10.6582367  15.0219607  28.2159495  11.7189467  15.6224072
  62.4734449  15.9769702  13.5186076  63.2660198  16.2508309  13.9801896
  62.5763941  15.0320351  13.4057856  24.4971235  73.1500531  26.8918991
  24.0176781  73.8395602  26.4326119  23.9960630  73.0035824  27.6942205
  12.1031530  75.8896930  56.7663717  11.2586792  75.4540206  56.8816280
  12.6211508  75.6116981  57.5217676  61.2831879  13.8211167  50.8907652
  61.7261362  13.9031816  50.0461960  61.9711447  13.9758670  51.5380669
  24.0127762  52.8122831  14.7748780  23.3306082  52.3344565  14.3031180
  24.7044237  52.9447294  14.1265666  21.8729027  70.6273664  26.4235020
  22.1623905  71.4093841  25.9535265  21.8562181  69.9400986  25.7574558
  47.8509617   0.0389271  33.5090899  48.2514381   0.9067344  33.4565639
  47.8674793  -0.1764365  34.4416022  36.1059141  48.5170364  61.9714880
  35.9165287  47.8546715  61.3069296  37.0419526  48.4199238  62.1465111
   2.1951349  64.5582927  16.9105995   1.9931705  63.8440097  17.5149512
   1.6784127  64.3637849  16.1286807  16.5628401  46.6736760  68.5405719
  15.9198776  47.3166802  68.8395284  17.3699251  47.1760603  68.4289405
   8.5634716  79.3835183  17.0097041   9.2420013  78.7371213  17.2046423
   9.0396173  80.2078445  16.9096851  35.2301860   5.8916461  12.3924863
  35.2307916   6.8232530  12.6123524  35.5903959   5.8544356  11.5064311
  58.5233593  18.4733796  15.4502106  58.2755756  19.1528559  16.0772240
  59.3932581  18.7331474  15.1468384  36.5050467  64.8140181  33.7447572
  37.2248180  64.8513616  33.1148624  36.7355021  64.0918733  34.3292475
  45.1409101   5.0506389   8.0874574  46.0678387   4.8825437   7.9178095
  44.7120285   4.2097503   7.9287106  42.9679251  12.4701083  29.1770363
  42.0600128  12.7632403  29.0995741  42.9649925  11.8775773  29.9287891
  45.3635502  18.4283626   9.1821700  45.5566168  17.7102244   8.5794812
  44.4376707  18.6218584   9.0354073  44.5526981  19.7740233   4.4190383
  44.3639708  20.5432200   4.9565780  44.4843864  20.0890589   3.5177514
  38.2144901  55.3824785  64.7880392  39.0126672  55.7900908  65.1241897
  37.6950088  56.1134043  64.4531982   6.2850136  33.9994597  28.3630657
   6.0405678  33.2216716  27.8615427   5.9319878  34.7313666  27.8571844
  11.3514233   5.1107752  20.6473517  11.9237936   5.8776146  20.6232262
  11.9302738   4.3873146  20.8877039  23.7197502  61.3286591  22.2823453
  23.2354458  61.5610457  23.0746078  24.0407808  60.4424621  22.4491525
  69.7023773  31.6650438  19.8207998  70.2286053  32.4137664  20.1013923
  69.3689966  31.9159937  18.9593387  32.5065207  30.3994966  45.2141714
  31.7858005  30.9671164  44.9410343  32.1362519  29.8626018  45.9147978
  52.6614618  18.8678706  39.8225331  51.7721796  19.1130936  40.0780106
  53.0562115  19.6841264  39.5157218  42.8000498  29.6968246  49.7601748
  42.5224781  29.0784645  50.4360580  43.6139250  29.3275809  49.4173956
  42.1185684  39.7315502  28.9536929  41.1783504  39.6829462  29.1264868
  42.1945238  39.6131325  28.0068874  24.7391033  28.4312725  25.8092070
  23.8536263  28.6178207  25.4971766  25.3005481  28.6026525  25.0531387
  83.2215435  78.3270476  49.2756367  84.0613682  77.9343701  49.0374517
  83.4312065  78.9232222  49.9945593   3.2092612  38.2411544  12.0007385
   2.3665898  37.7939774  11.9222035   3.0465262  39.1204596  11.6593136
   5.6625946  70.9891761  37.3230147   5.6208523  70.8737350  38.2723093
   5.0671299  70.3256358  36.9746327  47.3994303  13.2258749  54.1122532
  46.6251373  13.4207511  53.5843086  47.3064470  13.7797940  54.8873377
  46.7789555  56.7120028  59.3950796  46.0306311  56.7690325  58.8009501
  46.4118624  56.8919134  60.2605867  45.5423077  68.4091962  32.6022744
  45.0714882  68.2236839  31.7897820  46.4598043  68.4755231  32.3376346
  47.7504873   8.0936289  43.9782524  47.9180479   8.9897686  44.2699528
  47.7409840   7.5772464  44.7841644  50.8807325   6.5618932  41.8969822
  50.9433126   7.2146887  42.5942469  51.7113256   6.6334552  41.4266396
  13.8126850  52.0950603  60.0209045  13.7308764  52.9716825  59.6452999
  13.4430218  52.1757650  60.9001493  20.5605912  12.9088557   6.0129881
  21.1297059  13.6746120   6.0901606  20.9371996  12.4020684   5.2935684
  62.3891115  10.8435249  36.9177079  63.3428717  10.9233034  36.9320703
  62.2174454  10.1334620  36.2991810  29.3324947  22.3609161  67.8068399
  28.9123940  23.1964803  67.6029348  29.7810411  22.1146441  66.9979000
  22.3304995  71.7219103  65.3156281  22.7329119  72.2805972  64.6506739
  22.0275267  72.3311211  65.9889030  19.3931206  81.6331937  36.2776232
  19.4486244  81.9351112  37.1842623  19.3129833  80.6818418  36.3464665
  62.6840687  14.4331598  48.5785246  62.4867582  14.2652845  47.6570511
  63.1025839  15.2940142  48.5808802  48.7023783   5.4336065  40.8736944
  48.4823370   6.0259372  40.1546955  49.5511293   5.7443422  41.1887980
  40.8094263  13.8843906  64.3928337  41.4705753  14.1163301  65.0449991
  41.1585045  13.1021833  63.9655972  46.3645697  12.8679109  30.9217572
  45.9808254  13.4135950  30.2353144  47.1976137  12.5719535  30.5547714
  54.2580938  18.0318153  10.6092954  53.3062744  18.1257296  10.6473899
  54.4563007  17.3424053  11.2430620  49.2929125  34.8016620  44.0191460
  50.1118994  34.5802999  44.4624186  49.3802738  35.7303405  43.8043022
  16.1994946  32.0272613  62.2739887  16.3810503  31.2831306  61.6999388
  15.2502906  32.0095086  62.3961687  59.1696835  19.6135485   4.8407990
  58.8593626  20.2834916   4.2316109  58.5083914  19.5940602   5.5325687
  71.5259900  59.9633851  67.9173611  71.4290777  59.1208258  68.3611329
  72.3537460  60.3136566  68.2465459  76.2318499  37.0130444  50.5767202
  75.9438677  37.8863049  50.3108072  75.5141349  36.4350081  50.3178883
  26.8095127  59.4313040  63.5990982  26.7933765  58.4896948  63.7704019
  25.8993641  59.6549978  63.4046136  69.4228489  78.1178350  11.9814301
  69.9928684  78.0218259  12.7443790  68.5504038  78.2560746  12.3501611
  86.0909381  54.7660818  59.2261754  85.5131259  54.1583707  58.7645994
  85.9482017  54.5749583  60.1531766  40.2941902  72.6516051  20.9428930
  40.1102598  73.3755780  21.5414453  39.5746382  72.6737065  20.3120255
  59.4086018  49.2084660  63.6860280  59.2733589  49.0018763  62.7612243
  60.2233663  48.7611457  63.9147042  56.7474516  67.5955893  34.0599418
  56.5447481  67.6121534  33.1245971  56.6549547  66.6759480  34.3088102
  38.8407755  31.0244465  43.5068274  39.5024300  31.7059970  43.3887863
  39.1926265  30.2658200  43.0410814  50.6247234  30.7992196  27.1856046
  50.4294395  31.7078805  27.4145937  50.5613708  30.3244495  28.0143452
  73.5533920  56.0793450  58.2607673  74.3690124  55.9127464  57.7882884
  73.8017002  56.0506775  59.1847537  17.7692421  61.7043067  23.4532571
  18.1209763  62.5606240  23.6966419  16.8204887  61.8303681  23.4388781
  43.6352165  67.4184121  30.5458140  44.1311367  66.7673791  30.0493765
  43.4011324  66.9718219  31.3594437  39.4526243  10.1079786  42.0937586
  40.1998234  10.2571452  41.5143824  38.6889076  10.3332865  41.5625286
  64.9713135  19.4057560  21.3501120  65.0687599  20.1722169  20.7850671
  65.6383801  18.7932730  21.0400820   7.4761930  14.7734334  50.3299056
   7.1136633  14.5952847  49.4621120   6.7128578  14.9720647  50.8722101
  14.4250973  77.7919690  29.2485213  14.7740753  77.0027364  29.6627188
  14.7552593  78.5110993  29.7871065  13.7536819  77.5484202  33.7837172
  14.6777018  77.7981723  33.7770629  13.3550652  78.1226728  34.4376063
  20.4989346  78.0117110  27.0250869  19.7316940  78.0030040  27.5973630
  20.8106859  78.9161868  27.0561957  62.0183594  63.3607174  33.6644769
  61.8434022  63.9846445  32.9599643  61.1804004  63.2707394  34.1183066
  38.3503366  13.9302242  17.2146511  38.3411074  14.4371545  16.4027596
  38.8529611  13.1442428  17.0005643  48.5568571  22.3102427  53.8057709
  49.2216873  22.6393008  53.2008314  48.3133316  21.4548731  53.4518337
  35.5212688   2.4781519  26.2389922  35.5331039   2.5855899  27.1900702
  35.0953436   3.2712293  25.9136486  86.9984395  56.5947200  32.3403692
  87.0663531  56.4784599  31.3926864  86.0573323  56.5923429  32.5151348
  33.1190991   6.1893725  13.8923311  33.9469433   6.0743487  13.4257722
  33.1850839   5.6023574  14.6455181  63.3501148  19.4197202  43.4471846
  63.0705023  20.0943542  42.8283787  64.1404724  19.0481234  43.0554199
  16.4045823  11.4315677   8.7762922  16.9988894  11.4002967   8.0265892
  16.9295859  11.1151624   9.5114738  46.0217762   0.7314888  44.3159056
  46.4623594   1.2402342  43.6352444  46.5549660   0.8670877  45.0992012
  35.3595662  27.9247069  44.1185951  35.7445025  28.7718320  44.3431711
  34.4903636  28.1388807  43.7797070  83.2284458  40.3906156  42.9243088
  82.7274616  39.7727633  42.3918581  84.1137655  40.0272036  42.9435873
  14.9579914  52.3686267  40.4927588  14.5752247  53.1403852  40.0754881
  15.0305231  52.6072002  41.4169073  41.9291258  13.5588741  -0.0003816
  42.5023937  12.8891909  -0.3733680  41.6878366  13.2155144   0.8599193
  52.6781225  50.5253220  63.2376337  53.5245466  50.9674501  63.1719017
  52.5432682  50.4047012  64.1775799  74.9893570  16.9947934  31.8157911
  74.8275661  17.8219354  32.2695422  75.9097767  16.8005490  31.9928122
  15.6420906  63.9825321  33.2353902  16.3455351  63.5184480  33.6892939
  14.9953135  64.1632951  33.9174747  34.9304795  45.8522177   4.9019539
  35.5188894  46.6049385   4.8434517  35.2115893  45.3892326   5.6911647
  10.3518069   8.5787141  49.0661526  10.8528471   9.3375432  48.7672091
  10.9506547   8.1102824  49.6476889  65.7894278  21.2702847  48.5194159
  66.1984396  21.3322520  47.6562214  65.6896830  22.1790576  48.8029909
  34.0138340   9.3072194  15.8067429  33.9570951  10.1875985  16.1781514
  33.4464383   8.7749708  16.3644218  58.0388165   9.7829682  31.9065046
  57.4191380   9.4706750  31.2471819  57.5542402  10.4489768  32.3942041
  63.3501863  25.5936551   9.0816474  62.5820732  26.1636424   9.0448648
  64.0808201  26.1600113   8.8333684  76.2598650  32.2104775   4.1153301
  76.2204496  31.3029830   4.4172110  75.3524963  32.4333327   3.9073576
   4.4428738  71.3965155  22.8052235   3.8632329  71.0513223  23.4842587
   4.9187811  70.6304694  22.4844170  53.1535673  27.1941066  43.5284138
  54.0135813  26.7777061  43.5850859  52.7290249  26.7666245  42.7846003
  47.5561953  14.7757769  27.3370743  46.8981361  14.1542351  27.6483202
  47.0478868  15.4969013  26.9658184  36.2888670  32.1420360  61.8507719
  36.4610553  32.0826793  62.7904844  37.1054292  32.4746585  61.4781904
  57.8272867  18.6625993  20.1914215  57.8369713  17.7102745  20.2874160
  58.0287075  18.9936125  21.0666895  13.4522589  63.6527098  28.4432054
  14.3177374  63.4618510  28.8047934  12.9683311  64.0406919  29.1722584
  17.6368197  65.1315642  48.0246019  17.7414520  65.3837908  47.1071815
  17.3680456  65.9375740  48.4654427  71.8864862  68.7487815  14.4327797
  72.0245592  69.2112111  13.6061443  71.0575859  68.2854436  14.3124737
  55.5602407  30.7915139  16.7374456  56.1821842  31.2997603  16.2167680
  54.7747803  31.3374615  16.7724538  51.4376497  18.8856912   2.7003133
  50.5798531  18.6303425   2.3608765  51.5277290  18.3949947   3.5172188
  68.5652461  48.6163624  66.1452110  69.3948713  49.0298601  65.9065129
  68.6118021  48.5174587  67.0961489   1.7448457  76.3511402  36.2965059
   2.2636803  75.8595724  36.9332170   1.4685901  77.1369053  36.7681909
  44.6668577  10.0269413  36.1372828  43.8953447   9.9694163  35.5736446
  44.7584391  10.9614146  36.3233066  38.5771139  58.6619998  19.4865096
  37.8933056  58.5555578  18.8252139  38.3976753  59.5152856  19.8813951
   5.3976734  77.3448820  30.2207613   6.0438736  77.1585918  30.9019017
   5.2330430  78.2846982  30.2974010  79.7594268  72.7163208  36.0972619
  79.6430786  73.5518230  36.5496230  79.9432499  72.0889635  36.7964506
  19.2552083  49.7434937  14.3358101  19.1342967  50.1695816  13.4872498
  19.0004437  48.8331948  14.1852059  43.7345839   0.8159889  41.5962076
  44.2383671   0.0049565  41.6644764  43.6523104   0.9683166  40.6547928
  10.2958711  75.7690997   8.7374461  10.1457007  75.6195159   9.6708840
  11.0543974  75.2246548   8.5266191  42.2018623  22.7735710  40.4982567
  41.5914631  22.5981045  39.7821140  42.5044584  23.6680174  40.3413153
  46.1650372  18.4941959  16.4476621  46.3465643  19.2579150  15.8999288
  46.5712595  18.7010944  17.2893333  73.6698873  74.7477818  58.5021019
  74.0559370  75.6234247  58.4809446  73.5730357  74.5064051  57.5809097
  38.0052972  15.9259593  46.8570375  37.3168826  15.2626050  46.8092775
  37.9258323  16.2905729  47.7384996  22.3666978  49.6390009  15.1038063
  22.5710106  50.2455282  14.3920374  21.4218593  49.7268009  15.2295065
  39.2265852  71.5855814  29.2250466  38.7067898  72.2812499  29.6276498
  38.6610039  71.2302137  28.5394359  60.6538677  31.7622018  30.2679443
  60.8487082  30.8273983  30.3343654  60.4855013  31.9061923  29.3367338
   3.1082312  53.9135041  70.6481714   3.6299149  53.1878760  70.9910159
   2.8766361  53.6431362  69.7596349  39.1794451  76.2939138  20.2295899
  38.3627089  76.7876620  20.1561856  39.8600920  76.9643072  20.2889419
  61.1383390   3.1928590  18.3393228  61.6903019   3.9718524  18.2705045
  61.2258434   2.7614635  17.4893391  61.2205935  37.7547145  53.7699556
  60.5984735  38.2635975  53.2501125  60.6780720  37.2968507  54.4120312
  53.5223055   8.5864466  15.6979442  52.8007460   8.2578588  16.2342405
  53.2191896   9.4386727  15.3847909  45.4181345  65.1274944  30.3496456
  46.0129364  64.6055997  29.8110652  45.6446655  64.8955453  31.2502646
  42.1534824  12.6226842  14.3395686  41.9424295  13.1512606  13.5699618
  42.8942490  13.0740106  14.7442925  76.9456239  74.1677768  47.2487783
  77.8563816  74.0711386  47.5270128  76.5327651  73.3379931  47.4880219
  57.6892414  72.5233438  52.6722072  58.1843844  73.1592777  52.1558224
  57.9325023  71.6741159  52.3036013  63.8196493  61.7987705  51.3720846
  64.3320937  61.7257381  52.1772575  62.9541315  61.4648605  51.6079140
  61.5628386   1.5454665  34.6663189  62.0435238   2.3258936  34.9422002
  62.1663618   0.8212923  34.8323369  52.5158461  75.2256537  22.8244424
  52.3183020  74.5124502  22.2173595  53.3896215  75.5219848  22.5696373
   3.6619456  46.5581132  18.6454940   4.1386874  46.3749100  17.8359342
   3.7817271  45.7712937  19.1772807  61.3470419  68.7405671  16.8361163
  61.0591753  69.2084862  16.0522687  61.2763269  67.8151084  16.6021132
  51.5346718  11.2275267   7.8480226  51.5329552  10.3298593   7.5157243
  50.7186174  11.3013136   8.3428365  74.8761654   5.0224727  22.1582413
  74.5783424   5.9129989  22.3439693  75.3469419   5.0956231  21.3280296
  55.9762383  10.1009881  38.8544488  56.0539246   9.5674098  38.0635691
  56.2153101   9.5087206  39.5673966  58.0964375   1.6271052  39.5691371
  58.6738014   0.9377960  39.2409015  57.6623440   1.9684100  38.7872767
   2.8297956  62.2591985  20.3792214   3.1893809  63.1457735  20.3489900
   2.2721537  62.2533108  21.1571884  59.5491171   4.0238240  11.9593287
  58.7022829   4.4379643  11.7932045  59.5859575   3.9272967  12.9109359
   7.0671546   5.3781426  34.5129490   6.8464273   6.2755048  34.2634416
   6.4342648   5.1569426  35.1961398  41.7289742  78.7995602  56.2932873
  41.4198835  79.2900603  57.0549345  41.5845306  79.3896920  55.5536175
  48.3325911  12.5414109  40.6035471  48.5542297  13.4602237  40.4522562
  47.8536415  12.5438905  41.4323044  72.1013084  68.7006214  51.2183224
  72.7924886  68.5098507  51.8524431  71.3902583  68.1040742  51.4523481
  62.8273582  19.2934465  64.1473818  62.7409554  18.6980581  64.8918819
  63.7653637  19.4768333  64.0949583  37.4082732  32.4050164  11.3614392
  37.6374149  32.1273017  10.4745340  38.0835128  32.0149469  11.9165325
  51.3877153  23.4771824  39.7010255  50.5445528  23.1024504  39.9557519
  51.2745667  23.7186813  38.7817287  75.7367864  51.6884365  51.4343499
  75.0010124  51.7010810  52.0464800  75.7492080  50.7941701  51.0932253
  16.6497000  80.7758951  20.5343628  15.7631882  81.1142343  20.6602907
  16.5322025  79.8327727  20.4205799   8.2319577  74.5379604   3.6945748
   8.0644305  74.2135633   2.8097397   7.9699929  73.8172818   4.2674875
  43.7088163  79.6877525  34.5013595  43.5694035  80.6150390  34.3091750
  42.9980906  79.4576944  35.0998330  13.6967003  20.9032750  16.6221392
  13.9642084  20.1404524  17.1347523  13.1123304  20.5486226  15.9520912
  10.3290422  57.6502396  60.9034872  10.8269246  57.9367329  61.6691685
  10.7101949  58.1383158  60.1736021  66.6957838  73.4543944  27.6371837
  66.8646396  74.3768842  27.8288388  66.5977008  73.4215260  26.6855884
   1.6676060  35.8978122  65.8971803   1.1586729  36.6457003  65.5843167
   1.4838091  35.8588322  66.8357597  32.9557610  12.9835224  46.8216658
  33.7086153  12.6114857  47.2810411  33.2919598  13.2091045  45.9543037
  31.0843523  68.6428977  35.1431823  31.6569288  68.3777059  35.8629489
  31.6146667  68.5168315  34.3563485  29.2547417   9.2670089  48.3807039
  29.9263406   9.3998158  47.7117109  29.0092039  10.1513660  48.6524677
  67.5893497  33.3964586  46.2894440  67.9757833  32.7932453  45.6545973
  67.6420259  34.2541265  45.8677053  36.5085340  12.4502635  37.9997277
  36.5503359  12.0023835  37.1548080  35.7637453  13.0460083  37.9184246
  83.1026418  60.5050851  12.7231467  83.1351859  60.0675298  11.8724310
  83.5370571  59.8974920  13.3217657  80.1575565  35.9399724  35.9211016
  80.8652306  36.3774991  36.3943887  80.4593277  35.9099746  35.0132108
  57.4892195  72.9190470  18.5122740  56.6655787  72.7930833  18.0411279
  58.0289896  73.4384949  17.9164040  27.2629976  11.5652287  35.6317401
  26.6373205  12.2833276  35.5363727  28.0947304  11.9966519  35.8275080
  18.5898995  10.4871666   2.9284307  17.9708743  11.0871804   2.5124687
  19.3905795  11.0017264   3.0302712  39.6958788  53.3084656  24.2908359
  38.9290054  53.0322553  24.7926784  39.3783339  54.0273858  23.7444401
  -0.1501696  61.7374898  31.6705084   0.7293160  62.1058501  31.5865564
  -0.2472107  61.5600301  32.6060963   2.3508256  50.6807898   6.3312353
   2.3867648  49.8090242   6.7248930   3.0738871  51.1575996   6.7387451
  22.3708685  66.3696898  38.8975358  22.6335390  66.1973597  37.9933596
  21.9370134  67.2222031  38.8625717  62.8551855  51.3441291  56.8435906
  63.2982388  52.1080258  57.2129129  62.0076862  51.6778376  56.5492891
  34.5762070  81.4243119  19.9032295  33.8274820  80.9924311  20.3144741
  35.1124580  81.7243405  20.6371546  34.7199440   3.1058022  34.0420270
  34.2288423   2.3583564  34.3831635  34.9130082   2.8713799  33.1342816
  21.5256079  62.7908362  38.9085007  21.0729797  63.3112062  38.2447457
  21.7926748  61.9952739  38.4480786  77.3192103  61.3180662  53.6509037
  76.7948265  61.0716630  52.8889751  77.4033732  60.5090381  54.1555071
  60.5759303  66.7810071  34.8706365  61.4955605  66.6886092  35.1195836
  60.2105772  65.9022416  34.9731994   6.9011624  54.4899631  37.1714640
   7.2409113  53.5973264  37.2347474   6.0068353  54.3834282  36.8473363
  31.8770051   5.3617102  23.3873081  32.6480222   4.8339695  23.1793356
  32.1456861   6.2615967  23.2022476  85.3026104  13.7773263  32.8726578
  84.6224022  14.3182254  32.4714351  84.8314476  13.0222106  33.2248473
  75.9993691  64.3447996  12.3259699  75.7342262  65.2517427  12.4788976
  75.7693405  63.8883079  13.1352508  18.4568039  21.3095703  49.3951951
  17.8048817  20.6576350  49.1378818  18.3530870  21.3907375  50.3432928
  23.3010443  75.4536171  25.3044963  23.1004150  75.0086529  24.4810963
  23.7644156  76.2484826  25.0404787  23.4398563  68.7967242  15.8541763
  23.6039742  69.1751958  14.9904299  22.9388531  69.4674135  16.3182890
  68.8806240  63.8497232   9.2208733  69.4383709  63.5374259   9.9333443
  69.0028898  63.2073783   8.5218205  39.2284274   4.3045670  38.8391304
  39.2719221   3.5144126  39.3776417  38.3566809   4.6619365  39.0081739
  33.7182879  40.4814386  33.5901809  34.6187353  40.7831192  33.4701157
  33.2588553  41.2378979  33.9547706  24.4165810  67.8873123  52.2424746
  23.6136206  68.0728138  51.7555761  24.4830711  66.9324280  52.2398853
  15.4433442  36.7118597  36.5776014  14.9124051  37.0890427  37.2790766
  16.3128758  37.0912337  36.7049289  53.2250118  24.3227434  24.6131134
  54.1041231  23.9562416  24.5178628  53.3554888  25.2703595  24.5780444
  55.6184292  50.3135252  10.0180626  56.0963058  50.1261044  10.8259857
  56.0226583  49.7443628   9.3631673  38.4446168   5.6915706  65.1289415
  38.0947089   4.8404661  64.8654699  38.0774069   6.3080281  64.4954014
  37.2810388   5.2887994   0.3286298  37.5674987   4.3759459   0.3581518
  37.5067425   5.5822271  -0.5540872  39.0380597  21.6752791  15.9585071
  39.4532990  21.9454694  16.7775333  38.8790607  22.4941635  15.4890573
  11.6118241  14.7347558  20.3545713  11.5339375  15.6820512  20.4676890
  10.8936501  14.3717897  20.8729553  84.6642017  27.9316926  46.1480331
  85.1237583  28.6645103  45.7381392  85.1272678  27.7903008  46.9737482
  63.3126011  50.1933178  67.9009206  62.4126830  50.0713357  67.5984292
  63.8474789  50.0721665  67.1164091  26.3169456   3.5642907  31.6940331
  25.5631447   2.9817557  31.6009212  26.3166475   3.8103765  32.6190615
  57.3699522  20.6584501  23.4840369  58.3103657  20.7834411  23.6114144
  57.2797155  19.7324610  23.2590175  34.2354703  42.8837919  49.7837543
  35.1861215  42.8029108  49.8609018  33.9363170  43.0541372  50.6769085
  17.1004358  60.8530071  66.9355471  16.3312689  61.3961389  67.1076570
  17.3881212  60.5639019  67.8015070  26.9826358  69.8921178   1.0205807
  27.5862830  69.6217989   1.7125143  26.2589495  69.2681359   1.0768236
  60.6523991  33.5869431   0.9024626  61.3996506  34.1232109   1.1675335
  60.5585432  32.9431629   1.6045809  18.8847470   4.9907818  25.5825067
  18.0699897   5.4891896  25.5193305  19.4222498   5.4876494  26.1993098
  70.1276167  51.6556598   5.4538989  70.0030382  50.9196521   6.0530674
  69.2399462  51.9372059   5.2325422  77.0711322  78.5607476  15.4257858
  77.0521481  78.1618125  16.2956834  76.3510818  79.1913513  15.4357183
  77.2528839  31.1770201  38.4853196  77.4953938  31.8431163  37.8420973
  78.0881023  30.8177400  38.7845874  76.7108789  62.2350004  68.6136745
  77.3482719  62.5212529  67.9594402  76.5760341  63.0030563  69.1687772
  46.2306309  17.2675526  29.6558928  46.3978767  17.5919545  28.7710047
  45.3849649  16.8236518  29.5924067  75.9458208  38.2288432  57.6771498
  76.7752790  37.7858400  57.4983311  75.6148243  38.4752488  56.8134594
  12.7613831  35.2744913  54.3048191  12.3293782  36.1185265  54.4360209
  13.6946107  35.4852152  54.2745876  53.0498695   0.7902866  24.5411158
  52.9637384   1.3855410  23.7964773  52.3133326   0.1856414  24.4508481
  34.2940745  20.9853337  11.0984673  34.6785626  20.2676413  11.6017689
  35.0461611  21.4530823  10.7354130   2.2813765  52.7445903  59.5849989
   2.6439110  51.8811717  59.7832607   1.3870398  52.7125993  59.9246679
  49.8061943  19.2083895  39.6199965  49.6168089  18.6398697  40.3664207
  49.4644594  20.0644279  39.8781538  17.4069405  14.8125792  20.4065084
  18.1664944  14.9756610  20.9657121  17.0903016  13.9509916  20.6778789
  64.7160769  13.0733085   6.7265099  64.5975733  13.6632454   5.9820890
  63.8633919  13.0620444   7.1612906  63.7115479  25.8467388  30.5143213
  63.0849648  26.3684297  31.0157800  63.7312412  26.2604260  29.6513581
  56.0367680  28.3968329  33.3685136  56.8069983  28.6824441  33.8598394
  55.4498577  29.1528583  33.3824921  46.3311529  24.8215914  51.1679840
  45.7997799  24.7246170  51.9582176  46.7486811  25.6775975  51.2636662
  52.8068399  28.4395814  27.1284771  53.2919455  27.9310822  27.7783489
  53.1093359  29.3390512  27.2537017  36.6601379  70.5232192  68.3472395
  36.9657953  70.7876516  69.2149258  36.8234594  69.5806874  68.3127260
  44.6511698   5.1205873  48.6313009  43.9181423   4.7116053  49.0913439
  44.9279451   4.4649917  47.9911280  31.1782765  29.0752149  47.0731640
  31.3438964  28.7865877  47.9706573  30.2390599  28.9398718  46.9475126
  83.8308144   2.2319794  26.0967493  83.1479263   2.4848787  26.7179847
  83.4050179   2.2784549  25.2407312  18.5728455  31.6933441  41.0443735
  18.2572270  32.4313927  41.5658188  18.7933827  32.0767641  40.1955032
  70.7547569  10.3765309  37.3380399  69.9112892  10.6490862  36.9767809
  70.9640503   9.5665503  36.8728948  67.1909666  14.1566038  56.0654354
  67.6046658  13.3056700  55.9205246  67.0349503  14.1894460  57.0092630
  76.1966602  58.4324096   7.3848213  75.2808802  58.6997627   7.4628987
  76.1813776  57.4843191   7.5156750  46.8626213  22.6998353  42.0657539
  46.6032076  21.7788029  42.0909214  46.5971994  23.0467820  42.9174662
  46.1700344  19.4515216  23.8804841  46.9802189  19.3432474  23.3823776
  46.4154720  20.0091529  24.6187520  82.7991596  63.7058856  66.5414543
  83.3719936  63.9945319  67.2519298  83.1052890  62.8238871  66.3302763
   5.5923732  76.9258655   3.8317016   5.1396282  77.7394007   4.0539908
   5.5886562  76.9034580   2.8747711  20.9386976  59.6952535  22.7436304
  21.0724886  60.5934025  23.0463910  20.3807457  59.2977549  23.4121466
  71.0626221  10.8041799  60.1323748  70.2755308  11.2526536  59.8231983
  71.3271427  11.2940276  60.9110308  15.9738461  79.3139889  56.2794183
  16.8525616  78.9385297  56.3353537  16.0115925  79.9003651  55.5237923
  51.2135029  23.3774805  47.2332048  52.1705484  23.3833528  47.2495413
  50.9883690  23.5634565  46.3216352   1.6781808  43.2734394   8.3077246
   2.0169068  44.0353775   8.7777650   0.7508183  43.4682417   8.1724983
  32.7370882  28.3987164  54.8164988  33.1885147  28.1231403  55.6143093
  31.8084383  28.2718039  55.0107574  60.7491875  28.8115883  46.4451885
  61.0299921  27.9578185  46.1158562  60.3415728  29.2370391  45.6908178
  54.1685732  78.3576337  20.3456807  54.9590357  78.3904249  20.8845043
  53.6841352  79.1484288  20.5827427  35.2976234  64.4096054  39.5432639
  35.7635172  65.0092972  38.9605618  35.1396139  64.9210883  40.3367710
  65.6269026  37.2680283  44.5351171  65.2029848  36.8526387  43.7841320
  66.4383078  36.7746568  44.6552706   1.4435101   0.0191808  12.6408327
   1.6183758   0.9071050  12.9526722   0.7001496   0.1163934  12.0456910
  83.3779335  19.4003308  29.7299004  83.8889122  18.7707198  29.2212510
  82.6432991  19.6284604  29.1602468  71.4208460  40.9581757   2.8184700
  72.1581173  40.3978586   3.0607635  71.3626337  41.5976858   3.5283059
  16.8668151  11.5256023  23.6408138  17.3268378  12.3620653  23.5705328
  17.5460470  10.8661032  23.4996128  24.8310590  16.4798880  35.6384373
  24.2947316  17.0452964  35.0826502  24.4268537  16.5417278  36.5038991
  72.4788156  63.5164120  67.0951213  72.7614847  63.8131478  67.9601519
  71.5715948  63.8134267  67.0246576  25.8388042   6.9042468  17.9129720
  24.8976564   7.0137477  17.7770185  26.0203958   7.3786175  18.7242842
  54.8631811  10.1676607  23.6592937  55.7405996  10.5250418  23.7958431
  54.2984867  10.6976008  24.2218900  38.1243968   9.7839260  48.8101387
  39.0217900   9.4531113  48.8485813  37.5795984   8.9970785  48.7929296
  59.3635368  15.7760382  33.1862998  59.6958876  15.4781628  34.0330839
  59.4438362  16.7292905  33.2193685  13.9722729  19.8989117  19.6000886
  14.4458390  19.1180432  19.3133521  14.6393300  20.5845618  19.6340799
  81.1748662  60.7809260  55.7082795  80.8893171  60.0799014  55.1223968
  80.9759441  60.4553130  56.5861402  18.3357246  72.4043001  12.4774981
  19.0431078  72.1922077  13.0864811  17.9330547  71.5599299  12.2746956
  29.2622566   8.1157452  45.3118038  30.0771594   8.5654151  45.5353212
  28.7223816   8.7896210  44.8986912  74.7058344  17.1396446  28.9985037
  75.0011015  17.0174265  29.9007869  75.3213072  17.7726614  28.6287498
  57.7892351  22.5113058  38.7560916  57.8581429  21.5817809  38.9739656
  58.6569548  22.8671575  38.9475799  56.2627268  21.5391064  29.2975807
  56.8528938  20.7980990  29.4348454  56.7910528  22.1815300  28.8238788
  62.2232723   6.4037824  47.5665474  62.0884562   6.9330126  46.7804384
  61.5117311   5.7637435  47.5493240  34.5570922   9.4738328  29.4770980
  35.0797844   9.1922027  28.7262917  33.6573076   9.2488736  29.2404270
  71.2442303  24.9749446  17.2285497  71.4071131  25.7820773  17.7166450
  70.3333998  25.0472355  16.9432545  59.8548508   5.6570756   6.3053524
  60.0192451   5.3744978   5.4057097  59.8465157   4.8459056   6.8134528
  43.9246233  78.6780546   4.0433910  44.3642719  79.3814927   3.5657766
  43.3803137  79.1300688   4.6880937  31.7095287  68.8540197  19.9044180
  31.1116608  68.6757840  19.1784620  31.1395891  69.1326190  20.6212044
  76.4289284  12.9156756  39.7671032  76.4918947  13.3355677  40.6249809
  75.4962206  12.7293706  39.6595097  17.6921232  72.6637811  48.0612135
  17.5149019  73.4021849  47.4784756  18.6343821  72.7077831  48.2238293
  65.5977726  46.0961342  44.6456432  65.3284311  45.6544590  45.4510069
  66.5235949  46.2978697  44.7812414  54.0621471  31.1161065  21.1562753
  54.4771194  30.4227686  20.6431365  54.7933292  31.6032887  21.5360904
  41.5013742  14.7032666  22.1485281  40.6646013  14.9064624  22.5665617
  41.2909222  14.0218890  21.5100408  49.5281029  26.4116764  40.4715014
  50.3782320  26.3197851  40.9016943  49.5000267  25.6925058  39.8404384
   8.7516785  48.5040951  25.2969074   9.1701031  47.7724266  25.7505798
   9.4801713  49.0451813  24.9923325  22.7487810  68.7405551  42.7672291
  23.3098801  68.0457319  43.1116343  23.3527859  69.4507099  42.5502253
  49.3049192   8.2094121  33.3597660  48.8623428   9.0530252  33.2666302
  49.4573164   7.9183459  32.4607182  60.4617405  14.2359126  31.2653089
  60.0714159  14.6787560  32.0188117  59.9435329  14.5336580  30.5176187
  13.9944935  30.9369755  19.1045415  14.0027238  30.8673596  20.0591707
  13.5340882  30.1507807  18.8110220  64.8505702  58.5805108  63.2559661
  64.0772119  59.1445401  63.2603250  65.4467383  58.9962818  62.6331107
  78.7310314   7.6852262  45.5838871  78.1284380   8.1961918  45.0434923
  78.6312532   6.7865837  45.2696943  48.9475298  28.6210084   6.4606196
  49.6932745  28.1424546   6.0985607  49.1498566  29.5415854   6.2937921
  64.0141058  10.7151186  41.6571474  64.0620661  11.6685486  41.5871429
  63.3531713  10.4606247  41.0132313  49.3414227  65.8617257  16.8943466
  49.4203917  65.0047802  17.3134388  49.8959033  65.7999705  16.1165489
  12.4024590  60.5427791  29.5324850  13.0610474  60.9448982  30.0988698
  12.9093273  60.0353790  28.8985586  65.7163763  10.6967354  27.3170543
  65.5971050  11.6303027  27.4915743  66.4696312  10.4473138  27.8524256
  83.3322587  72.0302393  65.2734511  83.6734119  71.1839583  64.9842159
  82.4574247  71.8339207  65.6086372  79.6235926  76.2754399   6.2591296
  79.5443423  76.7223073   7.1019000  79.7080953  75.3493799   6.4860737
  11.4276894  80.5120737  38.1036019  11.6113432  81.2266477  37.4937749
  11.3138588  80.9432919  38.9505529  36.1834788  23.8470006  52.9457235
  36.3581204  23.8704991  52.0048809  37.0188522  23.5932207  53.3381224
  36.0684450  80.6808172  45.8119297  35.1338394  80.8639684  45.9078312
  36.1179836  79.7291831  45.7215405  43.9854677  72.4575628  22.3838377
  44.1539724  72.3731113  23.3222985  44.5738228  73.1558783  22.0967412
  70.0031281  32.2554159  12.0420671  70.0811386  32.9735947  12.6700532
  70.6308222  31.6006374  12.3478365  55.5221510  29.0311432  19.8791289
  56.4772320  28.9758730  19.9107778  55.2218771  28.2979035  20.4161811
  54.6048212  12.1695232  13.8415265  54.2272425  12.3780441  12.9870176
  54.8260975  13.0205464  14.2197168  56.7439707  72.0085997   0.6334809
  56.7768724  72.1924532   1.5722817  55.8687552  71.6483272   0.4905068
   8.0300617  11.8603110  15.8876920   8.2820648  11.7341793  14.9729145
   8.8597900  11.8762124  16.3646924  45.3835535  29.0713000  16.6994369
  45.3177500  28.1478453  16.4562690  45.0411987  29.1087842  17.5925326
  36.4741206  10.6393957   5.6135684  35.8215761   9.9393010   5.5966169
  37.2791839  10.2094960   5.9021729  39.3137479  23.4486651  52.8670120
  39.3765903  22.8938127  52.0895672  40.0630760  24.0404963  52.8000927
  76.3021071  72.9075147  17.6535285  76.4863438  72.9133833  18.5928130
  75.5683083  72.3004843  17.5571716  30.8766794   8.3325994  39.0306711
  30.9215307   8.6863166  39.9189854  31.4582133   8.8951558  38.5192204
  86.0397870  68.5539306  60.8469439  86.8099911  67.9875911  60.8946562
  86.1047466  69.1123546  61.6216516  11.5692616  30.6258416  34.7197366
  11.5306855  31.5647101  34.9021339  11.0499669  30.5150390  33.9233160
  60.0732374  26.2257385  28.2509780  59.7051144  25.5226302  28.7861037
  60.9036207  25.8733535  27.9307866  59.4033575   9.7447485  25.1055503
  60.0741673   9.5297086  25.7536268  59.6816301   9.2874551  24.3120265
  26.5393265  61.1191131  33.2751155  27.2029264  61.1207963  32.5852871
  26.1129196  61.9727350  33.1993508  53.1831837  15.0854874  57.9584742
  52.9460001  15.9506953  58.2922220  54.0017414  15.2282166  57.4832630
  81.8670845  17.4350679  10.2482164  81.3696480  17.8096187   9.5212340
  81.2023544  17.0549214  10.8225536  57.0599985  12.9745340  65.9426212
  57.7911091  12.9399657  66.5594769  56.3056278  12.6717854  66.4480877
  47.3286676  24.8113489  15.6539464  48.1125307  24.3778610  15.3164887
  46.6351414  24.1581225  15.5614734  86.1260319   9.3144149  40.5204058
  86.6761589   9.9125743  41.0261679  85.7096767   8.7577033  41.1783934
  54.4046116  18.1928682  46.1160421  54.5845890  17.7241802  46.9310093
  53.4517527  18.1652892  46.0292959  27.1567250  27.6333070  57.6599026
  26.6672326  26.8592358  57.3816204  26.5850354  28.3694029  57.4418020
  72.6097012  10.1938403  11.2641096  72.1462917   9.3655002  11.3879466
  72.0608902  10.8433485  11.7036295  75.0738096  35.1560712  41.9701242
  75.3255510  34.2379928  42.0700693  74.7983074  35.4256296  42.8462887
  81.6037145  40.4653608  69.5649841  81.0248962  40.2208313  70.2870686
  81.5125671  39.7523014  68.9329477  65.8043385  13.7579381  52.4937010
  66.3176489  13.7386370  53.3013964  66.4158201  14.0745425  51.8288088
   7.6900013  45.1432992  16.8656170   8.2745059  45.4504562  16.1726236
   8.0102976  44.2666460  17.0780361  33.2069214  48.8776041  33.3501172
  33.6024244  49.6816112  33.0133891  33.7826450  48.6091352  34.0661478
  26.9471645  26.7926645   6.6214162  27.0585585  25.8475423   6.7242044
  27.4273300  27.0047784   5.8209908  71.9651318  12.1946716  31.0912919
  71.7356634  13.1227779  31.1381197  71.4248180  11.7801237  31.7639303
  38.9882064   9.9017566  14.7623396  39.6168637   9.9073195  14.0405428
  39.4245672  10.3853333  15.4637468  70.7205105   0.7410995   1.1249799
  70.4735947   0.2867478   1.9304788  70.1804590   1.5313886   1.1205858
  61.2502050  21.9387293   8.4995764  62.0207310  22.4280167   8.2112736
  60.5849504  22.1279049   7.8378546  44.2566061  31.0120058  39.0371966
  43.7524462  31.8117356  38.8872433  44.5146370  30.7238293  38.1616354
  40.2447748  15.4671478  39.3209624  39.4599438  15.1821399  39.7889829
  40.4528809  14.7383869  38.7363005  57.5716543  30.3267455  64.7080660
  57.4465942  29.9499631  63.8370752  57.7652311  31.2497377  64.5442104
  59.9494123  28.6656833  11.3995576  60.4733276  28.4463382  12.1700323
  59.3560410  27.9220748  11.2937915  73.5503864  12.1054256  61.3271189
  73.4616947  11.9123292  60.3938007  74.4664288  11.9115055  61.5258360
  28.8291660  38.2093336  58.8024329  28.3459774  38.9135703  59.2346476
  28.1594959  37.7132999  58.3315633  29.2196663  80.3244347  46.4714289
  28.7313660  79.5083553  46.3627577  29.6868094  80.4361021  45.6434584
  12.9243851  25.6713700  45.2064133  13.5136605  26.3696218  45.4917669
  13.1172753  25.5607200  44.2754030  73.6523628  15.0608802  25.7553720
  73.2715797  15.8660066  26.1060977  73.8316727  14.5245206  26.5276408
  37.2847509  17.4887717   0.9277368  38.0704474  17.3048818   1.4426111
  36.7809319  16.6755664   0.9608464  82.0640531  55.9120598  59.5850979
  82.2661844  56.0681500  60.5076001  82.7615419  56.3613405  59.1077278
  40.8520515  78.3319188  20.6692815  40.5863197  78.7078027  21.5085268
  41.6117819  77.7890358  20.8798099  69.1722789  74.1007783  70.1856454
  69.6143213  74.8909619  69.8750988  68.7084380  73.7681367  69.4172479
  30.1260567   9.0450329  66.5097523  30.7223105   9.7764874  66.6700172
  29.2946887   9.3254626  66.8923998  84.0287209   9.7669256  68.8704538
  84.5490837   8.9736456  68.9975977  84.0208530  10.1884937  69.7297859
  30.1440048  35.4733276  51.5965033  30.7574105  35.2198720  50.9067774
  30.3399086  34.8795962  52.3213053  56.0343552   4.9934730  29.3634582
  56.0588169   4.0987656  29.0241456  55.6962681   5.5162168  28.6363602
  28.3883722  71.3974191  38.2694364  27.4972494  71.0866786  38.1095266
  28.2959898  72.3438550  38.3787823  40.8098602  22.4968648  33.1363606
  40.8829927  22.8415298  34.0263557  40.9135771  23.2638860  32.5731993
  26.0780724  76.6112090  14.0055954  26.3629110  75.7570190  14.3303394
  26.3584192  76.6251827  13.0904770  68.2529497  40.2176857  22.2797680
  67.9779434  40.3374720  23.1887531  67.9313374  40.9975719  21.8274736
  32.9199505   9.2092538  32.5587130  33.1249547   8.6343282  33.2960486
  33.7563157   9.6161437  32.3325109  60.7903862  31.4671111  27.6065731
  61.2238073  30.6146193  27.5661087  60.2677059  31.5083122  26.8057370
  23.7919950  24.2362690  44.5801497  23.4569573  23.6163735  43.9322948
  24.7406483  24.2263651  44.4529057  58.0288124   2.7013889  47.2346449
  57.1384335   2.3507838  47.2114134  58.0184364   3.3340454  47.9528856
  85.1515896  80.0436566  35.7943416  84.3037493  80.0789064  36.2372398
  85.3208048  80.9475533  35.5286956  12.2908600  56.7607046  24.1205525
  12.7108057  56.3154674  24.8565125  11.4102467  56.3871742  24.0855503
  27.8207554  41.9857984   1.6135468  27.7270219  41.0454909   1.4610113
  28.7452195  42.1018720   1.8329205   1.6124154   3.5483256  44.9011374
   1.9722653   3.6047581  44.0159512   0.6945420   3.8015720  44.8031378
  57.3179898   4.8582146   4.4729294  57.6105961   5.7147763   4.7842421
  57.5973210   4.2473099   5.1548447  56.0794067  17.0417976  13.9820886
  55.3943348  17.6636600  13.7367451  56.8066883  17.5903189  14.2760658
  84.1126537  81.0375881  70.0186682  84.8575974  81.0250568  69.4177246
  84.0791512  80.1506805  70.3771400  79.0249062  13.9895093  28.1237435
  79.4052553  14.8462176  28.3176899  78.9171124  13.5758710  28.9801979
  58.0498505  17.0898283  39.8773575  58.2937717  16.1892688  40.0911951
  58.0511045  17.1175516  38.9205599  80.9920406  13.5252702  42.2948313
  80.0861263  13.7128425  42.0491266  81.1474705  14.0670907  43.0684614
  86.6062927  35.4352641  40.6202841  85.7349777  35.0513053  40.5222034
  87.0560455  35.2205086  39.8030734   8.3796311  39.9634123  44.6952581
   7.4920846  40.3124332  44.7769880   8.4516335  39.3237495  45.4036903
  35.0963211  14.2351925  40.9186363  34.8170424  15.0121641  40.4343319
  34.9601769  14.4642472  41.8380022  79.3171930  52.8734875  30.7984591
  79.6849537  53.4653854  30.1422238  79.0104389  52.1190786  30.2954650
  62.7492094   5.2186757  40.8875418  62.1852636   4.8523825  40.2063417
  62.4555349   4.7959125  41.6945457  19.9737263  30.8625197  60.9087372
  19.7122384  30.9068274  61.8284607  20.8220959  30.4194212  60.9220171
  69.6756887  25.6928205  49.0178823  69.2504501  25.0712371  48.4270906
  70.5501175  25.3297472  49.1585445  83.8200855  22.3196936  27.7460074
  83.1144810  22.9258633  27.9716468  83.3805943  21.4801145  27.6111245
  58.7636423  47.2740602  52.8763866  57.9402781  47.5760794  52.4928665
  58.8450336  47.7707577  53.6905766  73.4212446  32.1833897  42.9224014
  74.2896795  32.3690510  43.2795858  73.4877443  31.2909532  42.5827456
  75.2373505  25.8345532  53.5985613  75.9408188  25.9952760  54.2274761
  75.1600790  26.6545796  53.1108999  81.7581844  27.2439241  35.2892542
  82.2926712  26.9519806  34.5507908  82.3483562  27.7863646  35.8124113
  83.6113644  48.5068464  39.0165615  83.3408737  47.6263952  38.7560296
  84.1021538  48.3763647  39.8279381  55.4072762  19.6896505  43.3899593
  55.5439758  19.3624747  42.5008535  54.7932291  19.0687132  43.7819004
  64.5780659  18.6105037  26.2981534  65.4140377  18.6655748  26.7611313
  64.8137665  18.6584544  25.3716660  55.7647570  54.6274687  24.5410204
  55.2822168  55.3450848  24.9513984  56.5181215  54.4866467  25.1144624
  66.2603521  37.4564195  21.2821484  66.2965107  36.5627527  20.9411454
  65.3270292  37.6267505  21.4091182  85.0977039  68.2307291  42.1642733
  86.0390854  68.0917025  42.0608807  84.8590279  67.6989698  42.9235458
   6.2859059  54.4706678  69.3431330   7.0817376  54.9317980  69.6081448
   6.4786339  53.5473108  69.5059299  57.3348904  14.9733579  54.6091986
  57.2132826  14.6263742  53.7254286  58.0243397  14.4279361  54.9878836
  66.8990421  28.7812281  36.4949298  66.5629005  28.3189440  37.2627401
  66.4666557  29.6348071  36.5209651  74.0316296   2.5209910  21.1663127
  74.4256639   3.3728012  21.3544369  74.5791674   1.8941541  21.6390848
   2.6976014  36.1155987  47.3548841   2.8496934  36.9365811  47.8229523
   3.3095837  36.1423135  46.6193628  62.0863438  25.7596493  42.2518253
  61.1648512  25.5039072  42.2108412  62.4283600  25.5635214  41.3795948
  15.3674412  39.0249085  45.2761889  15.4427624  39.7220349  45.9277773
  14.7274876  39.3547702  44.6454096  73.0973053  10.2099550  34.0550709
  72.4784803  10.1281381  33.3294034  72.5746632  10.0313079  34.8368382
  85.8355394  81.5769269  61.8282221  86.6700855  81.5151098  62.2929190
  85.4506555  80.7043412  61.9099943   4.8253060  29.8686647  29.5123935
   4.1154099  30.3458118  29.0827394   5.4804612  29.7445416  28.8256621
  37.3223503  69.4434226  16.8031156  37.1559008  68.9184714  16.0202026
  37.4067600  70.3394605  16.4771974  21.2048817  43.5689592  27.3329020
  21.8817235  43.1494665  26.8017340  21.6167927  44.3699980  27.6567745
  58.9778662  48.9777279  44.8426533  59.8344135  49.2969036  45.1267052
  58.6473179  49.6632099  44.2620611  84.9535370  40.4653835  50.4158926
  84.8873901  41.1736774  51.0563421  84.8318291  40.8956242  49.5695400
  38.3841618  20.3968359  61.0271965  37.8757437  20.0522114  60.2930437
  39.0883930  20.8983399  60.6163667  79.5912409  49.6201372  58.8811874
  78.9447117  50.0099659  59.4696331  79.0705919  49.1361046  58.2401991
  36.6240001  11.1980605  35.2451396  36.8260169  10.2680039  35.1430845
  36.0413074  11.3983738  34.5126247  17.8514290  22.0549321  22.4298859
  18.6717606  22.5374198  22.5322962  18.0180741  21.4498210  21.7071843
  60.9205103  16.3830364  24.1493130  61.8660831  16.2347221  24.1382742
  60.7075071  16.6376388  23.2515168  84.2261791  18.7753189  24.5745015
  85.0011158  18.2243776  24.4642043  84.5723915  19.6219385  24.8566389
  49.0447235  77.4484825  42.6900768  49.0866280  77.0782089  43.5717630
  48.1485558  77.2771311  42.4006796  64.1312027  21.9641256   2.9100972
  63.9310980  21.1008692   2.5481883  63.7893105  21.9343376   3.8036597
  58.7258482   7.5850391  42.7052546  58.9327621   8.4144717  43.1359053
  58.9453077   7.7316123  41.7851543  79.3025732  36.2562490  44.5775652
  78.9050961  36.6488934  43.8003397  78.5961533  36.2351131  45.2231312
  71.6399431  65.5686951  51.0189152  70.7423544  65.2567196  50.9038591
  71.8599224  65.9790897  50.1826000  20.3880406  37.0320487  29.7563481
  19.7657395  36.4070678  29.3843675  19.8398877  37.6922417  30.1804900
  57.4775743  61.1312866  18.2258952  56.9946289  61.8415499  18.6484134
  56.9985342  60.3387451  18.4680343  71.2053919   2.1742809  10.8654189
  71.6371584   2.0736749  10.0170743  71.7240906   2.8373110  11.3210249
   7.7822686  39.2062569  18.2605052   8.2541466  38.4370255  18.5796392
   7.4227143  39.6111846  19.0497983  53.8035059  26.7610693  34.5358205
  54.6221209  27.0940351  34.1680861  53.4249496  26.2296891  33.8354182
  60.0151825  31.3746834  11.0588741  59.8395061  30.4390335  11.1585140
  59.1925764  31.7999601  11.3011205  14.7240449  15.7092261  18.1134069
  15.1148511  14.8454416  17.9815829  14.6239854  15.7845426  19.0623784
   0.2478791   8.9238971  69.0115929   1.0429574   8.6728621  69.4817543
   0.5383874   9.0716398  68.1115866  66.4715719  37.8440857  38.6804175
  65.6031179  38.2432413  38.7322974  66.5711832  37.6062632  37.7585983
  54.6250296  12.7618933   8.5885412  54.4772720  13.7019122   8.6922842
  55.5506134  12.6891983   8.3556312  82.5651073  35.6671667  47.8083849
  82.2865200  34.8633981  47.3695469  82.8766918  35.3764462  48.6654902
  71.9217157  13.0139637  24.6283388  72.1962738  12.1449614  24.9210596
  72.5298738  13.6149073  25.0587416  58.8910818  12.0432663  53.0350256
  58.3193302  12.5769603  52.4832058  58.6122227  11.1428428  52.8685713
  14.4665623  21.1956453  28.5462117  15.2595425  20.8640051  28.9674449
  13.8302994  20.4869294  28.6417365   6.3306523  28.1579065  17.3693180
   6.0000420  28.1061077  18.2661176   5.9253693  27.4153900  16.9213820
   9.6181679  27.4771523  27.8138733  10.3826237  27.0857811  28.2365656
   9.8033715  28.4162307  27.8060365  69.4613981  12.6348579  26.9542289
  69.7710276  12.6778162  26.0495114  69.0773678  11.7617750  27.0347500
  38.2886887  18.2332468  16.7311597  38.3307172  17.8360736  15.8612633
  38.3666993  19.1734183  16.5692186  53.2098596  80.5676125  13.3435024
  52.2869031  80.4343699  13.1275715  53.5857145  79.6872924  13.3419193
  17.0446220  63.0057266  63.7473141  17.0531908  63.3386662  64.6447043
  16.5400091  62.1939137  63.7978475  41.8955341  70.5258324  67.9554762
  41.4439407  70.4620316  68.7970363  42.6551071  69.9506070  68.0470462
  53.0846214  18.7615836  20.3652573  52.5860691  17.9944646  20.0838256
  53.0731201  18.7171555  21.3213563  -0.0541591  31.6436386  48.1085110
  -0.1007079  32.4441600  48.6312294   0.2573586  30.9761953  48.7198257
  81.0469818   8.5315883  44.0360641  81.0241508   8.0447835  43.2122135
  80.3416348   8.1505352  44.5590496  31.2550831   7.9757380  14.3617225
  30.8692742   7.5271940  15.1141846  32.0053292   7.4333751  14.1184020
   8.8035027  79.3260434  68.2838918   9.5617500  79.4865873  68.8456003
   9.0290419  78.5327651  67.7980171  72.3307610  25.3542662  64.3649769
  73.2109594  25.2930284  64.7360992  71.7817450  25.6376243  65.0960875
  26.6096211  26.1501002  17.7181959  27.4002457  25.7222104  18.0469167
  26.6205216  25.9821296  16.7759109  64.1383696  26.3742852   0.5837427
  63.6364603  26.0680532  -0.1716000  63.9341450  27.3074627   0.6446330
  26.1169856  80.6376933   6.2124743  26.5051882  81.3055967   5.6472935
  26.8646090  80.1399110   6.5433849  76.4982033  24.0608597  13.2481134
  77.2399521  23.4978223  13.4695315  76.0741043  24.2394090  14.0874541
  63.8075399  63.6015749  36.4604902  62.9865599  63.6534500  35.9710693
  63.8383532  62.7004147  36.7817259  85.4354095  11.0951650  34.5928931
  84.6584320  10.6452346  34.9246955  85.3255653  11.0931790  33.6420202
   4.1389943   6.4049089  49.4254351   3.4242726   7.0272821  49.5597982
   4.8318196   6.7051739  50.0137043  61.4321852  74.4856358  12.7889585
  60.5377579  74.8122978  12.6913714  61.9858694  75.2238798  12.5346792
   1.2346569  25.4284515  50.0417505   1.9041458  24.7639921  49.8789440
   1.2145821  25.9498801  49.2392908  17.8400613  64.8008633  20.8517408
  17.3695756  64.3990421  20.1213861  17.3294736  64.5627165  21.6255760
   1.2383843  42.6108789  13.8214040   1.3471318  43.3597517  14.4075739
   1.1831284  41.8550634  14.4061458  65.5909960   3.4668302  69.2550802
  65.7534592   3.9691686  70.0535154  64.6445529   3.5246038  69.1241741
  47.9077666  21.3132905  16.9455969  47.1171038  21.7428445  17.2720504
  48.3887999  21.0650300  17.7350318  69.7161341  50.0869799  45.5479431
  70.3939915  50.7507944  45.4211044  69.2247391  50.0864410  44.7265005
   2.2265053  45.1719952  26.5250349   3.1222726  45.1660919  26.8623757
   1.7834569  44.4755411  27.0096946  21.5254417  56.6794696  31.2531219
  20.6676641  56.3069036  31.4571963  21.8051020  56.2179115  30.4625593
  81.8570328  38.6097240   1.5745163  81.4916611  38.5347247   0.6929792
  82.2832775  37.7668190   1.7296337   2.1862603  45.1916075  53.1198025
   2.0205403  45.4558802  52.2148561   1.4526177  45.5570650  53.6142159
  10.2290154  54.4914961   6.1814046   9.3938256  54.6837234   5.7550973
  10.1987458  54.9850178   7.0010114  69.7178092  66.6378739  66.5342896
  70.1070609  66.1695888  65.7957600  70.4393831  66.7517211  67.1528415
  79.1181755  41.4056110  47.0955324  79.6110868  42.1853161  46.8399382
  79.7308350  40.8990335  47.6286936  67.7146530  20.6045651  37.9914951
  67.6847982  21.2605405  37.2950482  66.8771267  20.6987262  38.4452724
   3.3247758  43.2447958  56.3401985   3.8554288  44.0387583  56.2748671
   2.9886914  43.2544088  57.2364044  19.1651719  21.8975400  45.2082539
  19.3523400  22.8156041  45.0123882  18.4912532  21.9300698  45.8872271
  70.9773302  77.3804617  45.1102686  71.4714670  78.1905699  44.9846554
  70.0663424  77.6287794  44.9531937  34.1795636  42.3319197  35.5554008
  33.9524365  42.8251839  36.3436532  34.2571259  41.4257812  35.8539367
  61.8520069  48.2410526  53.7907457  61.6402578  47.4151230  53.3557320
  61.9643116  48.8667583  53.0751228  18.6985343   5.8596849  48.5217428
  18.5175793   5.2481507  47.8079462  18.1930201   5.5214643  49.2608595
   7.3476411  67.2995567  33.2532668   7.4631692  67.8564978  34.0231371
   7.8394700  66.5040827  33.4571362  26.4706612  73.8528204  32.8860235
  26.8655778  73.1602526  33.4157610  26.8396855  73.7257481  32.0120072
  18.9536191  44.4389057  37.8423166  18.7415410  45.2400875  37.3633885
  19.7783566  44.1414356  37.4581861  52.2355366  40.1751328  64.2214680
  52.4967718  39.8438692  65.0806808  51.2957382  40.0000525  64.1728783
  72.2485352  60.4942513  24.9983907  72.0303774  61.4235020  24.9267411
  72.0636463  60.1371527  24.1297555  81.4383316  31.1246681   0.2470457
  81.2495232  30.5812120   1.0120519  81.7777061  31.9420052   0.6117575
   2.8776837  35.5187964  53.6290598   1.9307233  35.4398227  53.7442827
   3.2450104  35.2418375  54.4684601  78.8450432  65.7091665  47.1792936
  78.1355238  65.4987669  46.5722084  79.6148062  65.2797031  46.8061304
  34.3436433  48.3945417  24.6426558  34.8116875  49.2206907  24.7636533
  34.4275475  47.9462481  25.4842162   1.9213486  27.8449821  36.8602014
   1.9544602  27.0335054  36.3536024   1.5437508  28.4872603  36.2592602
  73.1152534  77.0812988  32.9730487  72.2665310  77.3621321  32.6309443
  73.6933517  77.0826912  32.2101402  21.2315751  17.3435855  45.2723551
  20.6409264  17.3891020  44.5204973  20.6544018  17.1975338  46.0218668
   3.2308674  20.9407830  52.8675365   3.3689976  20.4330444  53.6671305
   3.8723851  21.6492653  52.9198742  74.8576164  35.6035995  44.6732473
  75.5664015  35.4964828  45.3075838  74.6876335  36.5455031  44.6608162
  67.7062368  68.9028502  33.8807607  66.8030882  69.0411615  33.5954118
  67.8979063  67.9968882  33.6384273  83.9298344  37.2403193   5.1151299
  83.5363197  36.4088225   4.8505616  84.4526958  37.0230293   5.8868980
  76.8146896  36.5569210  27.1434259  76.2876558  37.1294212  26.5860057
  77.5240612  36.2563920  26.5753555   1.7971516  30.6231952  32.1051216
   1.9047833  29.7860003  31.6537309   2.4539757  30.6061745  32.8011990
  18.8031733  28.4371829  18.6634207  18.0176079  27.9987264  18.3365071
  19.4262266  27.7274632  18.8194072   1.0949484  38.8117389  69.2528738
   1.1458031  39.2509773  70.1018234   1.6130510  39.3630936  68.6665214
  68.9653444  43.1539106  28.0734539  68.7387228  42.9566336  27.1646309
  69.8470402  42.7978039  28.1831574  20.5060952   0.4704331  31.8081641
  19.7279828   0.0020074  32.1104002  21.0575764  -0.2078200  31.4182067
  -0.0085449  46.5289593  46.8743467  -0.5760669  46.8950129  46.1960030
   0.6789685  47.1846771  46.9909716   6.5930844  63.2372475   3.0248678
   5.7854462  62.8223133   3.3278134   6.6406823  64.0566730   3.5173154
  32.7627127   8.5182046  27.4268293  32.3170798   9.3456697  27.6083255
  33.0151789   8.5791825  26.5055418  13.3594227  56.1501312  70.1395988
  12.9750634  57.0252705  70.1908541  14.1644574  56.2116098  70.6537580
  65.4044580  64.3241739  51.4023924  64.5571423  63.8807392  51.4430141
  65.4020929  64.9147129  52.1557093  76.2634850  72.5661993  14.8595822
  76.6507435  72.2435379  15.6733096  76.9781208  72.5309038  14.2237484
  85.7853985  57.6332664  46.7903900  86.3851452  58.2683182  46.3989353
  86.3472176  56.9049883  47.0553446  48.4562922  55.6772280   1.2341402
  47.6087952  55.6773520   0.7891978  48.7293482  54.7598124   1.2290378
  17.8996277  38.8362670  13.2692802  18.7713624  39.0475893  12.9351234
  17.6507569  39.6003628  13.7893295  68.4164572  49.6025848  36.8378496
  69.2997885  49.9591637  36.9317365  68.4454393  49.1026306  36.0221052
  23.3367253  58.6816978  26.8127394  22.3877240  58.8024950  26.8450189
  23.6201955  58.7675905  27.7229571  51.1644745  56.7836571  27.5955057
  50.8586168  56.9477510  28.4875584  51.3258219  57.6549673  27.2335434
  38.0874158  29.8213696   5.9150708  38.0795384  30.6760144   5.4840845
  38.8730431  29.8360157   6.4617050  75.4771852  57.9996681  21.8092442
  74.9179411  58.7761974  21.8310952  75.5230665  57.7118206  22.7209854
  12.5471497  71.5146303  22.0644975  12.5707627  72.4011421  22.4247336
  11.6186810  71.3458681  21.9042301  57.3922110  66.3227844  26.8520856
  57.0530081  65.4549074  27.0710969  57.7410364  66.6589451  27.6776457
  19.7641564  41.4773035  32.7205729  20.3232670  40.8264828  33.1449080
  20.3391553  41.9136667  32.0919299  67.7285385  45.6056452  38.8897276
  67.5585747  46.4563084  39.2943501  67.7557850  45.7883215  37.9505157
  51.1043978  46.2077379  10.5242622  50.4934597  46.8796301  10.2216876
  51.7065716  46.0836887   9.7906232  72.4026537  66.5068293  48.7362623
  73.1373072  67.1187925  48.7811565  71.8460417  66.8516254  48.0380249
  53.3152691  80.8310749  64.5343999  52.8323952  81.6548087  64.4671176
  52.8680244  80.2410271  63.9277314   9.1770077  29.3102694  59.7672176
   8.5847188  28.5700607  59.6348906   9.1306306  29.4892049  60.7064009
  38.5392380  25.6970167   7.4840671  38.0209517  25.4367518   8.2455599
  37.9369855  25.6140089   6.7447221  52.7287149  51.0880041  51.6386557
  52.9666471  51.6079903  50.8710384  52.8986645  50.1830816  51.3770056
  65.1891184   1.8974440  51.1753416  64.8162460   1.4308366  51.9233274
  66.1330652   1.7590182  51.2530422  16.4770985  34.0733862  16.3795435
  15.6423855  34.5069504  16.2020528  16.4314080  33.8357615  17.3056531
  72.1565962  25.3420687  24.8254895  72.3300457  26.2245560  25.1531529
  72.6921749  24.7721148  25.3773427   8.4346581  63.9121723  19.5470631
   7.6751328  64.2548656  20.0181413   8.1315709  63.8118935  18.6446691
  80.2985382  60.1658964  61.3988781  81.0647869  60.7269621  61.5185022
  80.6182671  59.2820263  61.5799093  54.7125053  73.7448311  45.9557438
  53.8037157  73.7437248  46.2562943  55.0404549  72.8743315  46.1813831
  11.0709015  72.8063657  58.8614581  11.7470947  72.4434259  58.2893823
  10.5061451  72.0614364  59.0672718  23.6410714  41.2009525  19.8351026
  24.4250107  40.8928680  20.2897978  23.3312321  41.9365168  20.3634739
   1.6234399  52.7722120  49.8576307   1.2804223  52.5636482  50.7265806
   1.8417645  53.7030554  49.9033976  86.0158730  44.0590572  42.8726578
  85.3602219  44.0845490  42.1757269  86.7100334  43.4972763  42.5280237
  79.7379398  48.2065773  15.7132602  79.0872335  48.0655050  15.0255764
  79.7465038  47.3864555  16.2067771  40.3532076  42.3362494   9.5780832
  40.6740189  43.1710863   9.9191982  39.5439363  42.5603485   9.1186392
  12.2988797  17.1784639  30.8386350  11.4756394  17.6633275  30.7800961
  12.0734502  16.2897050  30.5638242  54.8304796  60.9399128  21.8455887
  55.7191753  60.5846643  21.8297935  54.6169186  61.0096502  22.7760506
  74.7009706  65.2008104  62.6725054  75.3628874  64.5259380  62.8229904
  74.4252586  65.4657698  63.5500097   3.0252457  65.2572870  36.0215855
   3.2616902  64.9848557  36.9082117   2.5355912  66.0706711  36.1435175
  68.6601162  30.7958603  61.6593981  67.8500175  31.1729836  61.3162565
  69.1493988  30.5304265  60.8806944   6.5682221  57.2640753  12.2093379
   7.2338963  57.8189230  12.6158524   6.1993790  56.7613125  12.9355729
  72.2598417  11.0497595  69.7732640  71.7796667  11.6607977  69.2144295
  71.8857630  11.1778428  70.6449826  85.7008457  59.8984814  29.9842834
  86.0570145  60.3912926  30.7235479  85.0667953  60.4929972  29.5833230
  40.4078674  74.7036552  47.3897600  41.0675287  75.3596067  47.6151562
  39.5766497  75.1006699  47.6499319  14.6266461  50.7446527  53.2703686
  15.5176545  50.9045696  52.9593039  14.2459870  51.6176987  53.3658504
  64.8651123  56.2191963   4.0679935  64.5031214  55.5972052   3.4368634
  65.1501989  56.9619370   3.5357457  31.2440301  30.9199524  17.2116697
  31.5074731  30.0142241  17.3744106  30.5593682  31.0901690  17.8585851
  65.8892441  61.9341230  21.7598391  65.6608629  61.2470913  22.3859835
  65.8877516  62.7396107  22.2769642  14.9070836  59.4118977  21.4924407
  15.5333520  59.6805620  20.8202529  14.4205285  60.2098846  21.6991353
  33.0185802   3.9600016  60.4927979  33.3605774   4.3016459  61.3189636
  32.1647318   3.5923220  60.7208000  50.2861881  65.2459431  63.2282829
  50.7329988  64.4512224  62.9367161  50.3753662  65.8538437  62.4943018
   6.1405850  63.4380484  17.5047922   7.0371724  63.3634377  17.1779931
   5.6175805  62.9253292  16.8885005   1.9448472  68.6116028  38.8261318
   1.3674737  68.6314440  39.5893312   2.8088475  68.8329363  39.1736197
   5.7629300  15.8664358  36.0534692   5.4766369  15.4880559  35.2221465
   6.2717152  16.6375744  35.8030438  52.7958448   8.2269217  67.0444073
  52.8196390   7.2891213  66.8541546  53.1269224   8.6414267  66.2476630
  76.9070816  76.8493223  57.7847099  76.9825792  76.8984413  58.7376642
  75.9782505  77.0008326  57.6099110  82.7777863  35.8639550  56.2534571
  82.8543186  34.9640846  55.9362650  82.8517628  35.7896471  57.2048950
  85.1350403  25.0495315  42.2307158  85.2577877  25.7129359  41.5517044
  85.6116009  24.2849183  41.9074631  72.0088530  51.6271448  32.0942616
  72.7481461  52.1477222  31.7801261  71.2958241  52.2582483  32.1918678
  25.1556016  47.4899912  16.3544214  24.2355920  47.2888422  16.5257204
  25.2156544  47.5427961  15.4005682   3.2980457  59.8802867  60.1629148
   3.5814014  59.2273774  60.8029555   2.4006907  59.6283307  59.9449645
  10.2798463  27.4990821   4.1077030  10.1018334  26.5963387   4.3715110
   9.4413090  27.8220057   3.7778479  69.9734640  53.5799408  19.6981072
  70.7913876  53.4853888  19.2099571  69.2891312  53.5307503  19.0306473
  71.8943930  47.6709890  43.2939291  71.2609434  48.0163097  43.9229965
  72.4260139  47.0577621  43.8014364  65.7929564  34.1147995  43.1999779
  66.6878557  34.3964505  43.0100775  65.2783585  34.9216318  43.1788826
  11.9207860  31.6576219  16.0801029  11.2915135  31.3665199  15.4201710
  11.7499924  31.0976315  16.8373823  64.8969889  46.7756033   1.6882992
  65.6069851  46.1589766   1.5096664  65.0847054  47.5266361   1.1253194
  57.8631401  46.4929390  44.9419260  58.4649467  47.2218037  44.7908878
  57.9298019  46.3178730  45.8806181  60.8149290  67.2585106  65.6352997
  60.9579277  68.1169319  66.0339165  60.7891846  66.6520452  66.3754129
  70.4599905  56.3563824  13.4981298  69.7003508  56.1434889  12.9560447
  70.0957346  56.8318605  14.2447674  74.3257952  58.6595011  33.4626031
  75.0635290  58.8286638  32.8766298  74.4213772  57.7393913  33.7085581
  12.0760060  72.6542282  43.8345432  12.2062016  71.7131996  43.9517927
  11.2284566  72.7258825  43.3955002  78.3344364  50.8109379  56.5162563
  78.1851053  50.2314520  57.2633362  79.1133165  50.4547691  56.0888004
  52.3900270  54.8000860   5.8854425  52.9568624  54.0962982   6.2010539
  51.5030193  54.4516277   5.9750575  76.7679214  65.7586050  54.1847324
  76.6326332  66.6778564  54.4147587  77.0982313  65.7825470  53.2866526
  63.6162758   7.7958834  44.2714930  64.4608402   7.8816658  44.7137403
  63.0242062   8.3541679  44.7754812  14.9181176  59.6087599  45.2541780
  14.7168828  60.3598356  44.6959448  15.0690175  58.8887644  44.6417475
  55.2910662  26.1931181  49.8041868  54.9677372  25.2921820  49.8072290
  54.5083809  26.7280293  49.6718788  65.5790663  61.4894533  53.4998941
  65.0303125  60.7117224  53.6010695  65.6836176  61.8262339  54.3897724
  42.1165848  47.2341585  59.5928526  42.9340935  47.5094795  59.1779947
  41.9710875  47.8780031  60.2860546  76.6296721  50.4178572  47.3411512
  77.0614481  50.7165432  48.1415176  76.3167429  51.2205267  46.9239807
   4.2687321  31.1065364  33.0713606   4.6890069  31.7101884  33.6838961
   4.8948098  31.0203290  32.3524570  78.1483126  45.1010418  45.1060247
  78.9816570  45.4658222  44.8081827  77.8678608  45.6871605  45.8089066
  72.9640388  41.5157461  43.7262630  72.2886181  42.1124029  43.4037161
  73.7871122  41.9787216  43.5699415  47.4751385  80.5759036  30.0398374
  46.8049438  80.4375190  29.3705654  47.2529467  79.9546742  30.7333350
   1.7430878  25.2633524  38.9339137   1.6063500  25.8076525  39.7093320
   2.2471047  25.8175993  38.3380818   6.1975957  54.0306520  28.9566278
   5.9604741  53.6873913  28.0951309   5.3724576  54.0521145  29.4413114
  68.3837557  32.7673054  35.4028416  68.6100340  31.9414330  35.8305883
  69.2275572  33.1635237  35.1854992   1.0134507  18.9190948  23.6097598
   0.6372834  18.1179857  23.9743829   1.2542630  19.4406748  24.3753958
  81.9550610   2.8405541  27.9740381  81.8577099   2.0010969  28.4235573
  81.9118500   3.4930032  28.6730909  26.3329983  39.9511671  52.9558134
  25.4658223  39.7317886  52.6150703  26.7071725  39.1100264  53.2179451
   8.9639378  44.4357538  35.6195927   9.2705155  43.6023664  35.9769511
   8.1189442  44.2288113  35.2203536  45.4208899  60.2534008  33.9124489
  44.7494555  60.5143642  33.2821250  44.9424839  60.1206827  34.7308302
   7.1953353  11.4372088  69.9712115   6.2428912  11.3441254  69.9913302
   7.5257739  10.5513121  70.1203134  53.8902283  55.0445890  47.2406530
  54.4013643  55.6085968  47.8210592  53.5829496  55.6293964  46.5479708
  21.3588334  33.8305569  29.7910190  22.1521950  33.7974095  29.2565036
  20.6718636  34.1044021  29.1833067  82.5850296  48.0871725  25.7220054
  83.2154083  47.3809767  25.8639383  81.7317295  47.6803255  25.8722544
  55.8919334  56.7167473  58.6392546  55.4936028  57.3502922  59.2360687
  56.7233992  57.1170998  58.3850670  42.0533005  75.5308249  61.3789628
  41.7348496  76.2978151  61.8549310  41.6347042  75.5910041  60.5202506
  21.3537121  49.3959284  35.8988047  21.9507886  49.8366976  35.2942801
  20.5899335  49.9711800  35.9431052  77.7420759  42.5873995  69.4368076
  77.7111912  42.5217724  70.3912592  78.2070684  41.7987585  69.1574240
  17.2876263  65.3041792   7.1201700  17.5879670  65.5684519   6.2505829
  17.6023961  64.4056845   7.2194743  56.5041780  62.8975630  20.5957222
  57.1316099  62.8223705  21.3146830  55.7784081  62.3279047  20.8506393
  78.0245495  65.5462217  44.2589855  78.2418728  66.4585590  44.4504213
  78.5286093  65.3400373  43.4718132  54.0741587  17.7762091  28.5983586
  53.5782003  17.1340752  28.0905008  54.4348717  18.3731365  27.9427719
   5.0056077  71.2419319  33.1775165   5.9063435  71.1860371  32.8584862
   5.0134469  71.9780684  33.7892962  19.1051293  41.1626720  18.7840843
  19.3898297  40.8799076  17.9150486  18.9468766  40.3480387  19.2611134
  67.5325537  74.3665314  22.8832841  67.6676607  73.5690260  23.3950996
  66.9513702  74.9021101  23.4232998  56.0819149  19.9726701  38.9051223
  55.4276752  20.5911994  38.5801220  56.1685801  19.3257797  38.2049417
  81.6390800  39.7734880  39.0119481  81.9262218  40.6739378  38.8603759
  81.9760704  39.2850018  38.2609153  60.5780983  14.3650126  18.6859047
  61.0086870  15.1754940  18.4139752  60.3203106  13.9439571  17.8658509
  76.3915920   1.7853820  44.5532322  76.4856768   1.0161133  43.9914465
  76.2937832   2.5167340  43.9434862  39.2390156  56.1466503  27.8828621
  39.9590874  55.6507063  27.4932814  39.2431832  55.8904886  28.8051391
   9.8166371  54.4111538  12.2789609   9.4265175  55.2494717  12.5264752
   9.0697766  53.8227320  12.1685314  81.7257690  56.5846205  39.5504546
  81.8956280  56.5839481  40.4924631  82.5952148  56.5721607  39.1502953
   0.8493901  63.5104942  62.4810123   1.5403653  62.8798246  62.6836014
   0.5621148  63.2758141  61.5986109  48.2706785  25.4773498  22.3801112
  49.1552258  25.6733847  22.6889563  48.3330917  25.5288815  21.4263391
  68.1588173  30.5079842  33.2444096  68.3169317  29.6759391  32.7983904
  68.8775587  31.0725665  32.9599977  23.5107995  21.4490438  59.8336887
  22.8622819  22.1515512  59.7873640  23.0287553  20.6611419  59.5825338
   9.4526864  51.8816996  14.8522663   8.5020066  51.9926357  14.8633766
   9.6063901  51.0819483  15.3552675  67.7530193  45.7570839  35.7893896
  67.8523254  46.5813303  35.3129578  66.8065929  45.6250620  35.8449221
  74.7685242  47.0633030  26.5220881  75.0193357  46.5349436  27.2798228
  75.0800848  46.5632343  25.7677078  39.1360800   3.2453775  47.3394966
  39.9429839   3.5485791  47.7556658  38.9747756   2.3854875  47.7278280
  74.0767527  81.2546349  18.7371862  73.3430910  81.3397789  19.3460548
  73.8859749  81.8850327  18.0426121  22.1513121   0.5953073  28.7743616
  21.9691699  -0.2216197  29.2387772  21.8610757   0.4306363  27.8772116
  69.6914434  43.9906216  37.0039725  69.0499592  44.5303154  36.5419579
  69.7249508  44.3607807  37.8860664  10.3559058   3.0042886  25.2940440
  10.6813471   2.1400880  25.5460119   9.8187535   2.8412389  24.5187283
   1.0389615  12.9904401  27.4576902   0.8674050  12.1439707  27.0450282
   0.2535344  13.1682158  27.9751182  53.8875723  57.8087521  40.0408602
  54.0395117  57.0276451  39.5088673  53.9343977  57.4960375  40.9443235
  17.2401715  26.6217613   6.9298089  16.3373471  26.3498688   6.7648268
  17.1725560  27.5474262   7.1639115  63.7699223  60.1813126  20.6999326
  63.7083817  61.1360073  20.6682420  63.1031847  59.8777437  20.0838661
  78.8393259  65.3297138  27.2272897  77.8988934  65.4731274  27.3333716
  79.1801405  65.3046370  28.1214070   6.5964509  70.8074760  70.9581232
   6.3745785  71.7238474  70.7930040   7.5175763  70.7352448  70.7080126
  62.8452206  55.6125355  17.7822459  62.1756649  56.2040377  17.4386656
  62.8091764  55.7351589  18.7308741  25.6075892  49.1400693   9.3567909
  25.6950554  49.9906037   8.9264692  26.1643014  48.5539315   8.8442005
  71.5000575   4.3332242  52.0408201  72.4404376   4.3576860  51.8638659
  71.1331408   3.8263845  51.3164473  63.8318872   7.2933412  69.0295458
  64.4410181   7.7628154  69.5994425  63.3339119   7.9833055  68.5911369
  63.5595703  53.9312315  26.7729235  63.6351490  53.3360386  26.0270929
  64.4012356  54.3861532  26.8025637  14.4118214  26.4693117  18.3061576
  14.3932820  25.6663775  17.7854037  13.6470700  26.4017248  18.8778377
  62.8004503  56.4779425   8.9687347  63.1522131  57.3666096   9.0213275
  62.9293203  56.2230206   8.0551493  17.4312974  72.8812218  27.8164315
  16.6662408  72.4935579  27.3914170  18.1389619  72.2585535  27.6499438
  34.1901794  67.0204570  53.3700381  34.0139309  67.5568535  54.1429840
  34.8339382  67.5234105  52.8711961  17.4953182  22.7840496  58.0224226
  17.9124172  23.2830645  58.7247382  16.8021639  23.3594252  57.6988326
  66.5112305  57.9914427  36.3936520  67.2668076  58.1998062  35.8441782
  66.1696911  57.1739817  36.0312533  11.4046376  11.0581636  57.9239035
  10.7569735  10.8933496  58.6091757  11.7740052  10.1963853  57.7311802
  33.5901929  57.9957628  37.8789711  33.1085015  58.4654999  37.1981215
  34.4443131  57.8148222  37.4865913  72.6958990  62.7548504  38.3626103
  72.0036411  62.7161121  39.0225434  72.2601366  63.0866241  37.5775814
  80.5575752  78.9261007  27.7663589  81.4541435  79.2460775  27.6662612
  80.2873421  79.2370844  28.6303592  21.5106679  66.4098310  33.1541014
  20.9902287  66.5384007  32.3611045  21.3306904  65.5065966  33.4148836
  74.9956751  44.2216206   2.9866600  74.9529839  43.4930325   2.3673332
  74.1250896  44.6178818   2.9506785  60.3995474  36.0177685  69.4772313
  59.7755011  35.8869292  70.1911551  60.4289778  36.9667746  69.3557581
  72.4683245  36.8892075  57.7069197  72.6213606  36.9228960  56.7626332
  71.8334730  37.5863720  57.8716944  13.0306149  46.7226791  31.3950467
  12.8934003  45.8419275  31.7438745  13.8044930  46.6416311  30.8375812
  63.5689354  38.5418296   9.8217362  63.8118267  38.1665659  10.6681478
  63.4738493  39.4786763   9.9935186  60.6043911  71.1667633  54.9721146
  61.3962126  70.8681440  55.4194164  60.8522463  72.0038986  54.5796871
  14.0832410  56.4662335   7.4345411  13.3081231  56.9540379   7.1562018
  14.2446980  55.8467553   6.7229189  47.7376502  12.8333997  12.8732848
  48.3593695  13.2253121  13.4865546  47.8316157  13.3508538  12.0735073
  16.1763192   1.2112621  14.0195668  16.3457013   1.9806176  13.4758425
  16.7617798   0.5385758  13.6717582  73.3311844  61.5042257  49.4202471
  72.6458979  62.1084642  49.1347504  73.0679560  60.6567478  49.0614653
  44.9022881  52.4396183  70.4658535  44.9370972  52.3830964  71.4207490
  45.8194653  52.4342205  70.1920096  49.3073606  42.5209570   3.6541182
  50.0471210  43.0727196   3.4000689  49.4413567  41.7043209   3.1730938
  70.5538416  62.8958416  63.8707733  70.8516455  61.9861507  63.8723183
  70.1933956  63.0313492  64.7470999  43.4034777  54.1145229  11.9166207
  43.4384394  53.1716013  11.7556560  42.9562998  54.4720316  11.1495185
  28.0201476   9.6116208  41.0572052  28.9540141   9.7935723  41.1622047
  27.6810401  10.3681611  40.5787802   5.7036591  50.3423929  16.5473056
   6.4257909  49.7182894  16.6197681   5.4278470  50.4955387  17.4510241
  70.3844070  72.4777365  30.7976127  69.9866056  72.3699570  29.9336863
  70.5818939  71.5857697  31.0833240   9.5583956   4.0187882  29.9832869
   9.5470040   3.0628347  29.9356651   9.0738766   4.2245530  30.7827425
  33.5998154  39.4901705  17.2419798  33.4151555  39.9992180  16.4526737
  32.7391720  39.3238330  17.6265061  82.4511719  51.3645792  30.0689101
  83.1582451  50.7801199  29.7956300  82.0402908  51.6425276  29.2502832
  40.6673630  17.8138710  68.4289153  39.9706133  18.4677102  68.3717573
  40.5805452  17.3004986  67.6257066  33.7273622  79.2999792  37.4824405
  33.3616543  79.6922445  38.2752943  34.6742558  79.3999243  37.5805926
  20.4238646   2.4030732  43.2669687  21.0992091   1.7557382  43.0642223
  19.8798745   1.9813680  43.9321518  83.1958103  73.6833096   7.2593206
  83.6455536  74.5078993   7.4437505  83.7983227  73.2038450   6.6906965
  77.4034643  62.8120041  19.5702684  77.4487448  63.6470556  20.0359654
  78.2630062  62.7200842  19.1592145  32.5258010   4.9362802  55.6827307
  32.6129286   3.9914464  55.5565453  32.2106784   5.0297975  56.5817213
  21.4300904  49.2286370  20.9607472  20.9995160  48.3755849  21.0167565
  21.1694750  49.5728467  20.1064457  72.6669312  57.9657650  43.1942272
  72.2205019  57.6653099  42.4026108  73.4986115  58.3205748  42.8801489
  41.2562513  33.8180661  47.3247242  40.5489254  33.1731510  47.3229313
  41.4300203  33.9855528  46.3984489  37.1603306  78.4576488  17.3020828
  38.0382116  78.3189342  16.9466782  37.1305044  79.3917642  17.5088942
  59.1976085  39.0598411  52.5234435  58.7927928  38.2236623  52.2928761
  59.1331616  39.5851427  51.7258619  36.7391499  81.0796300  33.3010817
  36.0195406  81.0698964  32.6699686  36.3203295  80.9081545  34.1445374
  62.4231815   5.3479868   7.5024521  61.7795801   5.7246679   8.1025511
  61.8996382   4.8729876   6.8570745  19.4285162  58.5565568  20.7444239
  19.9532803  59.1638804  21.2659740  19.7927530  57.6939012  20.9428906
  63.2608032  39.0134478   5.1504004  62.3745823  39.3256640   5.3330588
  63.4992504  39.4380808   4.3263498  86.6100755   8.1465175  64.9842451
  86.3587537   7.2942831  65.3402875  85.9457221   8.7502458  65.3164814
  11.7194088   4.5538927  44.5002852  11.6728361   5.3362252  43.9507209
  10.8803757   4.1142203  44.3626629  73.8759708  34.6145606  17.1321821
  72.9938745  34.8950291  16.8883181  74.0321445  35.0269890  17.9817367
  40.4430723  19.2144597   5.6554127  39.7452521  18.5925961   5.8617198
  40.1054811  19.7156870   4.9130955  26.4695549  22.2639728  42.8695154
  26.6384411  22.5103641  43.7789106  25.8188128  21.5644240  42.9277992
  32.7678847   0.5980423  21.0306287  32.7688265   0.0218993  20.2662396
  32.4177599   1.4272997  20.7050872  27.2795685  65.2156700  40.6404209
  26.9910009  64.8858226  39.7894454  26.6364201  65.8872128  40.8676291
  33.9345177  74.7124369  44.8794794  33.7526520  75.1279564  45.7223892
  34.8382814  74.9578876  44.6814919  66.7292157  60.5090787  70.2927190
  66.4520994  61.2777784  70.7912572  66.6008129  59.7749688  70.8934078
  65.2958918   1.7195596   7.6717234  65.7218695   1.3347064   8.4376615
  65.5006552   1.1177173   6.9561201  69.9387613  10.2653267  71.0456332
  69.4736877  10.9905317  70.6284785  69.5675769   9.4799235  70.6436417
  30.0660666  79.3776437   1.9168478  29.5279129  78.7703128   1.4091359
  30.7294949  78.8235409   2.3280196  12.7601440  59.4663430  17.2555578
  11.9944485  60.0296546  17.3679030  13.0842979  59.6747161  16.3793516
  78.9125061   9.9174678  33.4277058  78.2101297   9.3779606  33.0646300
  79.6997023   9.6279883  32.9664469  58.4806498  58.1718660  16.2574232
  58.4959658  57.6883460  15.4314661  57.6750525  57.8854013  16.6877508
  63.6878014   8.7101793  14.7468340  63.2167768   7.8781593  14.7008896
  63.0022430   9.3764770  14.6990132  53.2398470  79.5709367  30.5825973
  52.3032244  79.4998447  30.3984356  53.5352190  78.6651436  30.6749535
  49.1339540  11.3098419   9.2815411  48.7403679  12.1823311   9.2723578
  48.3882618  10.7111204   9.3227988  18.0411633  54.3846417  18.2401097
  17.1177729  54.6196581  18.1487608  18.1400688  53.5924531  17.7120101
  36.5628433  11.3253582  15.4372597  37.2378111  11.0620606  14.8117006
  36.3488984  12.2260213  15.1938176  42.8397465   5.6428629  29.8203850
  42.5458288   5.0381482  29.1390896  43.7774658   5.4705209  29.9053216
  24.0120466  75.7574643   5.9407240  23.2180603  76.1648346   5.5945134
  24.0390881  74.8950965   5.5262089  17.3449436  65.3562643  70.3264167
  16.8160406  65.2087238  69.5423715  18.2257429  65.0763013  70.0773379
  12.1151169   1.3009526  49.1593133  11.4318712   0.7270409  48.8128553
  12.0824106   2.0770289  48.5999666  12.3445662  67.8786279  29.0462136
  12.6770981  68.7736691  29.1137004  11.8052919  67.8824664  28.2553911
  21.9935679  33.7482715  21.5284657  21.5483880  33.6986613  20.6825423
  22.4030828  32.8895950  21.6343307  56.0937309  17.8488231  33.8995552
  55.5741358  17.8591275  33.0957198  57.0008612  17.9043341  33.5991120
   8.8039509  37.3179578  59.6202825   8.3912912  36.5013319  59.9014650
   8.9786926  37.7906131  60.4340969  78.5057933  78.5222174  41.0590124
  78.9168627  79.3422908  40.7856417  78.4383495  78.5938568  42.0111418
  27.2195816  15.9970784  22.5732541  26.6710567  16.7811465  22.5975156
  27.9632711  16.2074816  23.1379533  85.6085777  17.1616566  26.9893718
  85.1510334  16.8845117  26.1955976  85.0300789  16.8962538  27.7043128
  82.1229902  53.6128332  69.5910069  82.1284213  52.8024187  70.1003486
  82.2314372  54.3058171  70.2423472  75.0249100   6.2980437  11.6743803
  75.2763271   6.0480320  10.7852709  75.6499767   6.9812065  11.9168878
  81.4454856  43.9312737  51.9987617  80.9632221  43.5157784  51.2839077
  81.3285270  43.3397656  52.7421795  17.1215160  71.0525251   4.9004707
  17.4595650  71.0570026   5.7959783  16.3563164  71.6268111   4.9304467
  43.9620598  76.6739381  18.3057642  44.0052994  77.6244862  18.4097874
  44.0772493  76.5303064  17.3664379  72.0943594  26.5837502  29.4793320
  71.6113710  26.4363790  30.2924967  72.2086143  25.7094502  29.1068053
  41.3623245  80.3354084  62.1466684  41.1497791  80.2678580  61.2158108
  41.9494541  79.5978192  62.3124170  50.1383209  33.4315920  28.6300325
  50.1529074  33.4921575  29.5852041  49.4552660  34.0460420  28.3614826
  28.7873991  72.0121450  23.7972903  29.2141588  71.4691044  24.4600224
  28.4813364  72.7809615  24.2784119  44.8374231  55.2028323  22.0901895
  45.3935297  55.0301147  22.8498888  45.3705891  55.7621742  21.5252972
  46.0638905  19.2816961  39.8217297  45.1206493  19.4439471  39.8359466
  46.3113308  19.3876588  38.9031577  50.9608944  73.9446248   4.7903177
  51.2645491  74.8153860   4.5338032  50.0067242  74.0189237   4.8067644
  11.4957524  11.7938077  22.2892165  10.9224129  12.5570476  22.2186947
  12.0234681  11.9619799  23.0698991  53.0327225  18.6311829  33.3432460
  52.1480274  18.4405029  33.6549926  53.1935024  19.5343399  33.6165357
  78.8210041  70.7710994  44.1441154  79.7516258  70.7039071  44.3577957
  78.5591800  69.8756636  43.9299250  54.5281124  26.2524843  17.0061052
  54.1812325  26.9927311  17.5040412  53.7962723  25.6381583  16.9491327
  51.0532427  17.2416711  25.1899624  50.4195786  16.8624258  25.7989597
  51.1802197  18.1371784  25.5032897  51.4256096  29.0113497  53.5225391
  50.7086802  29.2303777  54.1177464  52.0489264  28.5289431  54.0656662
   3.7560812  74.7801497  66.6638614   3.3345810  75.3256609  67.3279278
   4.5682684  74.4856980  67.0760266  66.0822065  51.6210557  23.2303381
  65.3420980  52.1886755  23.0152345  66.2768133  51.8181230  24.1465950
  68.3431339  15.6715345  12.3320544  68.8951159  15.0978422  11.8006217
  67.5805235  15.8478034  11.7810678  83.3777840  71.7611743  15.8481598
  84.2266853  71.9338013  15.4409790  83.1551201  70.8726645  15.5703008
  52.1116161   5.9487635  20.6810021  52.9804134   5.9522843  21.0827565
  51.6024685   6.5663469  21.2059712  50.9193754  31.6035199  56.2787724
  50.5019474  30.7877183  56.0022736  50.4295158  31.8717170  57.0561647
  48.5978182  59.1505004   0.6361065  48.3071764  59.1391040  -0.2758318
  47.9167421  58.6737443   1.1105249  34.3629320  77.6278038  50.8666134
  35.2628286  77.3595009  51.0521555  34.1631325  77.2271050  50.0205898
  63.3951998  16.6583931  38.0357623  63.8133335  16.8802977  38.8677216
  64.1232824  16.4560390  37.4482417  55.5940397  70.6515885  17.8651357
  54.8635443  71.1735512  17.5332260  55.6936796  70.9305895  18.7753344
  83.6875439  12.8206599  18.0069554  82.7913475  12.6356363  17.7261806
  84.1732216  12.0223999  17.7992868  63.3857203  28.5278106  21.2551403
  62.9602957  28.1299853  20.4955482  64.2833996  28.1966829  21.2276244
  43.7483311   3.6513296  13.0065680  44.6857262   3.5294476  12.8560174
  43.3719922   3.7216061  12.1292627  31.5050316  52.3877239   5.7256943
  30.7895541  52.9678535   5.4653704  31.3948464  52.2805977   6.6704774
   6.0090764  57.7050615  55.8062506   5.3167255  57.0581056  55.9416437
   5.5436428  58.5336948  55.6923819  44.8121738  23.4256101  34.4016695
  44.3049097  22.6647973  34.1186905  45.7113028  23.1036067  34.4658041
   7.0993145  72.6145978  25.9067607   6.8720873  73.2742603  25.2514410
   6.2637408  72.2088684  26.1379170  47.0548677  16.1088121  52.0474529
  46.6967964  15.2714396  51.7527914  46.3356113  16.7301118  51.9339228
  10.4148102  24.5649314  31.5673304  10.0701905  23.7151194  31.8417215
   9.6421433  25.0603175  31.2956357  78.7091970  21.2169170  20.2868128
  78.6163568  21.8918419  20.9591889  79.5526791  20.8055091  20.4752755
  42.4714954  79.9812936  27.8954983  41.5487726  80.1355191  27.6929402
  42.8163918  79.5392848  27.1196699  48.5638762  41.7861128   9.9641949
  48.8629436  41.9555092  10.8575559  49.2226458  41.1954260   9.5990366
  53.2380247  11.7894971  25.0232697  52.8378057  11.2642419  25.7162094
  52.5114822  12.2903526  24.6524429   6.1217514  30.2748575  60.6621192
   6.6449991  30.7511392  60.0174533   5.3614965  29.9636795  60.1707779
  42.9598951  23.8898754  17.5107896  42.2980881  23.2720518  17.8214979
  42.8186607  24.6768808  18.0370080  34.2778420   8.1156904   1.4813092
  35.0195503   8.7201273   1.5088040  34.4075704   7.6138085   0.6766248
  52.0653057  33.7491226  14.2713332  51.4202690  33.0880427  14.0200734
  51.6964579  34.5749331  13.9579368  43.3126974  18.0577636  19.0337157
  43.4973335  17.6297128  19.8697269  42.4013519  17.8333068  18.8458312
  60.7816084  54.9743296   4.5754197  61.0982950  55.5310298   3.8640654
  60.3160151  54.2637635   4.1343448  51.6583681  21.4245415  44.0370274
  51.4765882  21.4360452  44.9767399  50.8356047  21.6967249  43.6305714
  65.5469091  67.6596547  15.6538856  64.9761065  67.8057612  16.4082539
  66.1281164  68.4201158  15.6424618  62.7401400  15.0897503   7.4235016
  63.0860662  15.9617639   7.2333449  61.7904997  15.1887405   7.3555499
  72.0955276   7.9757756  40.8611107  72.7285910   8.1337613  41.5614700
  71.5995502   7.2114700  41.1544991  75.8103228  41.0212231  18.4301519
  75.5557632  40.3842068  19.0977168  76.7672968  41.0204983  18.4509575
  59.6462687  67.2430707  13.1301641  58.9535101  66.7666424  13.5876906
  59.9147852  67.9250599  13.7458122   9.9399909  78.5504828  36.7045307
   9.1967448  78.5015861  37.3057175  10.6522139  78.9105959  37.2329998
  40.5935049  32.6271534  26.2258935  40.6872320  32.8769159  25.3066206
  40.8052635  31.6938329  26.2433004  14.7187901  12.3192048   4.1207397
  14.6416569  11.4510322   4.5164165  14.4471646  12.9226208   4.8123613
  14.1416939  78.0445800   1.8510129  14.5197065  78.3165372   2.6873013
  14.7471483  78.3851222   1.1924593  46.5976715   3.8475579  12.3172116
  47.3104477   3.3560196  12.7253461  47.0377111   4.4871557  11.7572904
  63.5431147  18.2791328  34.2245770  63.8456774  18.4139848  35.1226306
  63.0150986  17.4818623  34.2669010  86.4655304  22.8210831  41.7628765
  86.0448837  21.9617271  41.7347383  87.3907280  22.6404285  41.5967369
  55.4956055   9.3859386   8.6574483  54.9629879   9.2722487   9.4446123
  55.0016069  10.0064468   8.1215680  67.6524067  46.2684870  12.0593357
  67.0684958  45.5604839  11.7872882  67.6341295  46.8877506  11.3296711
  72.1704149  65.0659990  22.1063232  72.0165253  64.8397636  23.0235839
  71.3271427  65.3962135  21.7963505  80.7987562  49.8684420  64.1968332
  80.3035703  50.2607276  64.9159549  81.7140975  49.9467250  64.4656263
  43.5724974  33.6881542  11.8249214  44.2387009  33.3352876  12.4147451
  44.0683270  34.1806626  11.1708415  73.0052757   5.5453581  32.7789307
  73.4259605   5.8066410  33.5980701  72.0685387   5.5609202  32.9751658
  61.8910082  77.2232188  19.4735479  62.7511080  76.8068765  19.5294023
  61.2731894  76.5278507  19.6993709  81.5121825  72.4752868  12.1576142
  81.1572940  72.0738543  11.3644326  81.2889225  73.4026075  12.0772254
  22.4787100  58.3740211   4.5641094  21.6513641  58.4911729   4.0972000
  23.0179651  59.1140796   4.2852712  35.7665349  17.5424731   9.6121860
  36.1999322  16.6893566   9.5879298  34.8337269  17.3356807   9.6700460
  54.4925737  15.5037534  41.0985851  53.8012934  15.5066729  40.4365015
  54.7014475  16.4284754  41.2308502  19.1103959   6.2278014  14.2938948
  18.5449541   5.6615996  14.8191774  18.7223780   6.2086159  13.4190774
  35.7250746  21.2010695  55.7370900  34.8650129  21.3326527  55.3380738
  35.6885632  20.3153874  56.0982822  66.2551737  26.7846012  38.7382340
  66.9531441  27.2292042  39.2192769  66.4335060  25.8526421  38.8642597
  30.2565678  69.8181511   0.9200886  31.0374697  70.3715552   0.9070219
  29.9223049  69.8966516   1.8135846  64.8433542  21.8269300  20.1965618
  63.9980507  22.0095348  19.7862625  65.4749966  21.8846059  19.4796717
  41.4372008  55.8932828   6.9016184  42.0465701  56.2372242   6.2484755
  40.9393065  55.2222060   6.4347233  68.9676762  10.1010084  27.6594591
  69.8190165  10.2236569  28.0794621  68.3488607  10.0362098  28.3868551
  85.0605066  74.5110686  22.8741741  85.3009112  75.1445586  22.1980619
  85.8327706  74.4569231  23.4371209  74.7104979  33.3432412  59.1846895
  75.6653547  33.4046912  59.1580629  74.5035887  32.5885725  58.6334229
  46.1460026  72.7908857   5.9962857  46.0948475  72.1241398   5.3114021
  45.5955132  72.4518819   6.7021710  59.3574238  21.0176039  42.3801851
  59.1378403  20.5861092  41.5544605  58.6881590  20.7149577  42.9939604
  24.9572659  16.0801482  47.3210144  24.6323490  15.4022288  47.9135418
  25.9025311  15.9338260  47.2850275  47.7024269  10.1276338  13.3386600
  47.9413509  11.0481179  13.2297754  47.7079725   9.9891639  14.2857754
  53.7033987  51.0801220  12.0787120  54.3950796  50.6037569  12.5379324
  54.1050339  51.3476753  11.2520707  52.2842932  17.7779067   7.7851146
  52.9477835  18.2761276   7.3078412  51.5633297  18.3954632   7.9078740
  38.8562925  80.8206355  46.5019941  38.7921293  80.6014776  45.5724335
  37.9541119  80.9957863  46.7696095  61.0416269  11.6448069  22.7391052
  61.3356209  12.4078536  22.2415495  60.0877762  11.6607404  22.6607060
  81.7171955  17.9004812  40.4275274  81.3936520  17.0628917  40.7591867
  81.8581676  17.7496409  39.4928598  70.5734682  28.1098771  40.6877661
  69.9929667  28.2439828  41.4369392  70.0476551  28.3629632  39.9290156
  77.5800610  11.8839693  17.4903011  76.8584871  11.2966657  17.7153230
  77.9065609  11.5526569  16.6537225  51.8855476  16.1299241  36.6479111
  51.5695381  16.9594169  36.2897038  52.1625566  15.6280398  35.8813524
  74.8786116  24.0640974  44.6471786  74.6691418  23.4639835  45.3628731
  75.7152128  23.7476182  44.3063354  58.0091381   0.5617254   8.3135808
  57.7787590   0.9857975   7.4869496  58.6151648   1.1713034   8.7347454
  11.9531226   8.0690259  29.5017862  12.0363307   7.1154499  29.5013809
  12.1053636   8.3223444  30.4122186  74.2824316  24.4411683   5.1213187
  74.9139786  24.4290996   4.4021288  74.8162842  24.5599031   5.9068984
  60.3738165   3.1382424  29.0248561  60.2526808   3.3461931  29.9513102
  59.7827625   2.4024318  28.8652730  53.0977631   2.2201526   9.2169607
  53.9894962   1.9979265   9.4846654  52.6552200   1.3755068   9.1335320
  61.7357635  32.7311611  22.6278400  61.7673206  32.3495317  21.7505765
  61.6642237  33.6736274  22.4766088  23.5240753  75.7285775  16.0654545
  24.0628489  76.1093892  15.3719568  23.6399801  74.7835208  15.9671378
  64.0163668  81.9810383  47.4669218  63.8307245  82.1370308  48.3928967
  64.0813692  81.0289318  47.3927593  73.4658384  14.1426468  56.5195131
  73.7005472  14.0211201  55.5995274  73.4221745  13.2549143  56.8748426
  51.9478989  18.6517799  48.8291502  52.4266005  17.8377461  48.6728573
  52.6259136  19.3268991  48.8563776  17.5623322  46.2583542  16.6776359
  18.2534600  46.2871408  17.3392594  17.5481797  45.3469133  16.3855648
  13.9988295  44.3618997  61.1075364  14.9553076  44.3609907  61.0704242
  13.7465111  45.2178156  60.7611619  57.5402403   8.6026770  15.5457628
  57.1804142   9.0724313  16.2981534  58.0102587   9.2717421  15.0481057
   6.4580346  18.7411976  29.2996073   5.6324673  18.5122037  29.7264814
   6.2172604  18.9135885  28.3893657  16.6586700  62.1820238  57.8723965
  16.0513512  61.5254118  58.2133637  16.9099823  61.8509819  57.0101415
  11.2220288  26.5334034  40.3618765  10.5628777  26.7800879  41.0106373
  12.0150948  26.9915462  40.6400537  23.3966072  74.3596382  12.6181233
  22.8427704  73.8283534  13.1901670  23.9973982  73.7321366  12.2162282
  81.4730993  81.6216447  52.7115308  82.1748557  81.1325290  53.1411062
  81.7304674  82.5391414  52.8020750  13.2595547  81.0828043  46.7397499
  13.8583239  80.3361356  46.7258215  13.7572868  81.7964338  46.3407183
  79.1941404  29.7367477   8.4239119  79.8994064  29.1029859   8.5549879
  78.7779379  29.8129106   9.2825180  31.8161941   5.8233792  41.4066935
  30.8980322   5.8807820  41.6711092  31.8479896   5.0733012  40.8128881
   2.0918385  41.5616918  59.8093437   1.9916454  42.5062709  59.6911763
   1.3045660  41.2948458  60.2839290  36.8168171  78.0739514   1.3168812
  36.5869530  78.9302305   1.6776876  37.4134977  77.6945336   1.9620515
  59.2372990  41.5288877  20.8012033  58.8676214  41.0856485  21.5648174
  60.1251650  41.1788607  20.7276320  46.2007149  10.7839562  65.3192817
  46.3141306  10.9592701  66.2534298  46.9871481  10.2988507  65.0694202
  53.6336573  81.5429307  10.2260637  54.0035208  81.9936672  10.9851885
  53.9435823  80.6410583  10.3085470  56.7394161  30.2863097  23.9635754
  56.8671322  30.8854675  23.2280970  55.7977533  30.1147342  23.9719987
  66.9988601  45.1707684   5.2616896  66.2095468  44.6731030   5.0482716
  66.7012279  46.0786770   5.3195585  79.7217274  13.1645930  35.7834578
  79.2207766  12.7568805  36.4898896  80.2431393  12.4506056  35.4165959
  56.1663580   8.3882946  25.7060313  56.7700863   8.8840210  26.2592030
  55.9263992   8.9973468  25.0076723   3.0106164  21.3344359   6.9305551
   3.1512643  20.4426527   6.6124833   3.5864926  21.4110136   7.6912975
  41.5179356  71.4949346   4.0065882  41.2052401  70.8030189   3.4237462
  42.2662027  71.8755020   3.5467023  39.5573571  77.5910499  69.9515147
  38.7615165  77.1036460  69.7386616  39.8491528  77.2211077  70.7847190
  66.2756014  28.0263138  21.6017342  66.6413975  28.8874006  21.3993740
  67.0395374  27.4565315  21.6910672  65.6752253  12.9271066  38.2926559
  65.7536650  11.9743884  38.3417225  66.5477943  13.2510912  38.5160136
  76.9918711  68.7778510  12.4237466  77.4971278  68.6171449  11.6268027
  77.5703533  68.5004295  13.1341171  74.3260813  28.4433055  23.7867522
  73.8395643  28.9721847  23.1544399  74.5914412  29.0646148  24.4648314
  61.5375614  31.7289495   8.8997942  62.0245552  31.1621642   9.4979787
  60.7920790  32.0368862   9.4152182  71.5027666  40.3946400  56.8022585
  71.1430311  39.6289134  57.2500181  71.5276146  40.1425934  55.8791733
  49.8478365  41.9681311  12.2690427  49.1493607  42.0253754  12.9210258
  50.1764441  42.8637457  12.1908116   3.0744076  34.9741793   4.6541297
   2.8107834  34.3017650   5.2822959   4.0263272  34.8903036   4.5988771
  86.5353584  15.2195346  30.4252338  86.7136478  14.9346149  31.3214874
  85.6639481  15.6133020  30.4679537  20.0143051   8.0532473  11.0368001
  20.5994606   7.7926302  11.7480671  19.7842097   8.9607143  11.2362778
  40.3854990  12.2752762   1.9375540  39.6832871  12.6592100   1.4124595
  39.9638081  11.5617406   2.4163795  55.8307457  10.0369155  34.8767972
  56.2159348   9.2543602  35.2710915  55.1406336  10.2975297  35.4867625
  53.6039877   5.8433253  30.9145308  54.5189333   5.5700988  30.8477974
  53.6435652   6.7236686  31.2882423   4.8554230   8.0137306  16.9726300
   5.2203561   7.4931729  17.6882231   5.5202294   8.6798286  16.7977691
  53.6470985  21.4236212  30.3134656  54.5650625  21.5702438  30.0852513
  53.6722898  21.1086249  31.2169981  57.8882647  14.1473830   3.3415073
  58.4588289  14.8398280   3.6749876  57.2890949  13.9617860   4.0645447
  49.4630623  26.5376401  59.4268608  48.9014912  26.4229727  60.1934910
  50.0610352  27.2439122  59.6714783   2.1239074  80.3368045  13.2663953
   2.7601774  79.8840640  12.7128422   1.7946656  81.0497115  12.7190435
   3.3128150  45.5808497   5.1377684   2.8255184  46.1325384   4.5258766
   2.9726108  44.6987582   4.9880689  50.9474230  10.1952791  18.5876906
  50.9277296   9.6309549  17.8147852  51.3833570   9.6686864  19.2576873
  70.7274302   4.2143132  66.6719581  70.2252634   3.7939907  67.3700906
  70.1959951   4.0888573  65.8857791  74.2092386  62.1544483  54.5280169
  73.3311668  62.0784833  54.9014483  74.0991893  61.9175746  53.6071406
  63.7413311  13.3906186  41.5868950  63.8774347  13.6084473  40.6648016
  63.1838703  14.0941036  41.9194269  45.4002190  53.1964302   7.8904301
  45.7200050  54.0092993   7.4990112  46.1695194  52.8157568   8.3141029
  23.9292923  41.9179701  67.0730494  24.4731632  42.6943737  67.2058456
  23.2717148  41.9646101  67.7670620  13.8123990  25.4541659   9.6587408
  14.7175217  25.1469636   9.6076238  13.3130932  24.8136210   9.1521585
   8.3977891  16.2365592   3.5126629   7.9011632  16.1133349   2.7037036
   8.5475922  15.3493524   3.8392422  16.0895983  73.9691665  64.5419393
  15.3099361  74.0062287  63.9878712  16.4757172  74.8421385  64.4707744
  52.2592409  80.0919806   5.5163527  52.0365389  80.9415473   5.1357323
  51.8453844  79.4534607   4.9356243  64.3172073  17.8357875  11.6462541
  63.5742998  17.4718583  11.1647165  64.8606730  18.2462800  10.9736693
  73.0525064  26.5691328  35.8771586  73.1003666  27.1009588  35.0827384
  73.1797886  27.1935248  36.5914178  72.0962675  80.2277259  31.0543156
  72.7023466  80.8017977  30.5859756  71.6904409  80.7930211  31.7115617
   0.1487637  49.9298716  22.6610351   0.8458615  49.3043995  22.8586769
  -0.3250503  50.0292683  23.4867811  29.6864525  39.1895323  53.9185522
  30.5555264  39.2884394  54.3073331  29.0838638  39.4869687  54.6002088
  60.5329847  18.5963857  12.8318775  61.0361099  17.9489577  13.3257771
  61.1926365  19.0964508  12.3512280  33.6048150   2.8564471   8.4727931
  33.4912944   3.2160839   9.3525690  34.0713453   3.5406318   7.9927176
   1.2793351  36.9478106   4.0201193   2.1567441  36.5923238   4.1616076
   0.8376122  36.2891436   3.4841454  51.2962627  70.5308962   7.7683908
  50.3405952  70.4794550   7.7851713  51.5790796  69.9688148   8.4897161
  23.9747811  40.4499292  27.6684499  23.5701276  41.0014105  28.3380437
  23.6594392  39.5672393  27.8624845  19.4498540  43.1773663   7.5878721
  20.2885438  43.6368656   7.6289850  19.6855832  42.2612381   7.4416971
  34.9352646  25.2309132  22.0664191  35.2349639  24.9217916  21.2115192
  34.3365598  24.5491028  22.3712420  70.7276297   4.9893394  22.6731253
  70.7325888   4.8165977  21.7316556  71.0213041   5.8969843  22.7516532
  49.1113480  80.0210231  41.4497042  48.7184437  80.0852468  40.5792284
  49.1116436  79.0837059  41.6437864  10.0126172  34.2676067  19.8999023
   9.6856881  33.5459614  19.3627107  10.9307576  34.0497875  20.0605130
  82.9090118   8.3095700   3.4852764  82.9750347   7.7670407   4.2711106
  83.7599468   8.7432384   3.4214452  68.3013058   0.6528600  30.8872485
  68.7016296   1.3216467  30.3316402  68.5111570   0.9263132  31.7802334
  47.7865314   1.1774197   6.0093188  47.8264856   0.2591002   6.2763858
  48.4168482   1.2459497   5.2922183   6.9231225  36.5444231  39.7063780
   6.9335747  37.1925640  39.0020776   7.8390885  36.2854338  39.8071527
  63.4195280  20.8898735  40.6022167  62.9356956  21.4287853  41.2280846
  62.7428055  20.4023051  40.1325846   1.9517899  25.7373190  35.0778556
   1.2546063  25.0876880  35.1681113   1.9084454  26.0093927  34.1611600
  44.2310572  20.9763575  10.7854557  43.9164209  21.5197873  10.0630176
  44.7956133  20.3259826  10.3676987  85.3952694  12.0450866   5.7358533
  85.2740288  12.3586273   4.8396245  86.1296463  12.5588059   6.0720390
  11.2898732  20.7986569  61.6418314  10.3733540  21.0417080  61.5109158
  11.2565518  20.0515556  62.2392941  51.1440420  39.7911692  16.0130215
  50.3238821  39.9326444  16.4858305  51.7056370  39.3340993  16.6390669
  74.1652489  21.9406509  19.7435880  74.9619722  21.9873619  19.2151153
  73.7695837  22.8079915  19.6575677  80.9466648   7.0561457  38.3024740
  80.9129429   7.1980274  39.2484999  81.8330479   7.3171198  38.0525851
   0.7905880  72.9169943  52.0546351   0.5383173  73.7695267  52.4092911
   1.0325495  72.4000218  52.8230272  24.4967754   2.8466870  47.1547972
  23.9411171   2.0977761  47.3706804  24.0486248   3.2750966  46.4255105
  54.2947348  77.0549403  30.6999683  55.1154478  76.9614766  31.1836410
  54.1453035  76.1923612  30.3128529  10.7242776  53.2471609  37.8118587
  10.5912305  54.1947412  37.8368163   9.9694539  52.9119825  37.3279881
  77.0445538  40.2846956  32.2265959  77.9725170  40.5011988  32.3173714
  76.9554663  39.4304490  32.6491618  85.4465103  26.3794494  54.8635721
  86.0614586  27.0977235  55.0124025  85.1736164  26.4827991  53.9519358
  11.4276505  22.3922348  29.0478754  10.9028054  22.6598978  28.2934690
  11.9011593  23.1839466  29.3032455  55.6924677  28.5187960  27.9194140
  56.4028835  28.0863833  27.4455380  55.3252554  29.1375303  27.2881007
  16.9172669  51.0026407  19.6706462  17.4720097  51.6806746  20.0563478
  16.0550309  51.4117575  19.5971763   7.3159791  63.8786602  43.9468575
   6.3785554  64.0511703  43.8590240   7.3631383  63.0215645  44.3704081
  22.2698880  38.1859517  57.2076130  22.8240586  37.9005456  57.9340172
  22.5213624  37.6199746  56.4777756  72.4410963  63.1230879  13.0456722
  72.7959919  63.9266443  13.4259117  71.9801998  62.6988602  13.7694359
   7.9181004  25.0361300  21.2193012   7.1981908  24.9295306  21.8410730
   8.1000519  24.1490340  20.9091687  70.4141863  77.9698355   4.6850297
  69.5908411  78.1146685   4.2188123  70.8598097  77.2906000   4.1787824
  39.2037598  72.4764206  68.4217870  39.4636742  71.8712046  69.1163303
  39.8504368  72.3386528  67.7296458  69.6208811  26.5098977   3.2459265
  69.3300200  26.4778733   4.1573030  69.4041967  27.3961449   2.9563606
  42.5751892  71.6658976  55.0515388  42.0961300  71.1390521  54.4118725
  42.3270718  71.2972882  55.8993576  44.4920118  76.6682572  15.3145838
  44.5719107  76.3827808  14.4044459  43.5887154  76.4594562  15.5526781
   5.4003239  48.4938002  49.0445089   4.6067620  48.0411482  48.7588549
   5.7905007  48.8263702  48.2361794  77.4075174  61.0604477  36.8935418
  76.6590595  61.5609980  36.5687442  78.0093145  61.0199928  36.1502838
   0.4199601  41.7825460  41.7467499  -0.0959491  41.2516594  41.1399269
   0.3347493  41.3349771  42.5885630  13.3690262  12.0672393  30.0591612
  13.3611584  12.9627872  30.3970432  12.4484158  11.8051648  30.0538325
  74.9634600   9.5946687  10.1311433  74.0149307   9.5303077  10.2424240
  75.2687263  10.0320816  10.9259462  28.7696553  23.1538439  34.7928548
  29.6154881  22.7838254  35.0456166  28.3914757  23.4695673  35.6135440
   1.0599423  20.8617973  51.2840509   0.4375363  20.1560974  51.4596319
   1.7184926  20.7773972  51.9735575  86.7306042   1.1484119   5.7090932
  87.1414185   1.4332116   6.5253937  85.8895779   0.7802434   5.9799540
   7.8283501  26.0257292   8.6157638   8.0988026  25.4749012   9.3503869
   8.5381890  26.6604376   8.5182637  75.2424908  22.2823477   8.3945751
  75.1829195  22.2934413   9.3498552  75.7369947  21.4875340   8.1946474
  38.0249310   1.4563502  21.5210176  37.7261162   1.6016036  22.4187064
  37.4396706   0.7798941  21.1802697  11.5040604  55.3245737  64.1315745
  12.3014132  54.7950604  64.1229688  10.8320776  54.7516599  63.7621890
  66.1902046   6.5200579  16.4697647  65.4288244   7.1000814  16.4592946
  66.0326862   5.9313565  17.2079062  75.9310341  22.1807122  11.0813284
  76.6740179  21.5778017  11.0546863  76.0905600  22.7234316  11.8534946
  40.1573141  79.1694785  23.1635499  40.7788666  78.6600200  23.6835051
  39.4066771  79.2959712  23.7438726  83.8501945  44.0448170  49.7569786
  84.1042152  43.4809860  50.4875956  82.8948703  43.9899298  49.7329818
  84.7560883   7.0808947  25.4948902  84.4953918   6.3737059  24.9048471
  85.6233788   6.8240672  25.8080578  13.1115118  80.4307678  62.8944109
  12.5424400  80.4941561  62.1273599  13.6992851  81.1825158  62.8193538
  30.9182556  13.3233096  63.1734793  30.2706583  12.7899767  63.6343549
  30.4165276  14.0589882  62.8223674  56.7469120  14.1588771  22.5247359
  57.0915174  14.0401673  23.4098291  57.0883322  13.4122133  22.0326400
  36.6881776  37.5852585  14.8322809  36.1462665  36.7968965  14.8646688
  36.6028976  37.9705143  15.7043684  47.2837543  23.0223966  22.8304386
  48.1716061  22.7567196  23.0699492  47.3957968  23.8677192  22.3955703
  12.2144604   7.9721344  58.2004595  12.2728921   7.1509612  58.6888170
  11.2767220   8.0987102  58.0560398   6.7338277  79.3233109  19.3446028
   7.3154736  79.5319462  18.6135852   6.2085820  80.1142693  19.4660401
  33.6333085  63.6267424  15.4474247  34.3628312  64.1959667  15.6923807
  33.5333253  63.7578773  14.5045364  82.3512363  31.0380888  15.1506376
  82.1014023  31.3470078  14.2797840  81.6145229  30.4960728  15.4329753
  43.0284691  21.9244599   5.8078724  43.8976955  22.2664571   6.0169399
  42.4236298  22.5855517   6.1445647  -0.2727317  35.2974010  29.9242401
  -0.0011157  34.5185328  30.4098558   0.4826356  35.5145216  29.3778777
  12.0126439  57.0261478  18.0936229  12.2990895  57.9235363  17.9237103
  12.0535470  56.9379139  19.0458703  42.5786074  17.4464013  64.2299835
  42.2753628  17.3100020  65.1275752  43.5131128  17.2412754  64.2591087
  45.8247335   1.9711710  68.1482898  46.5230091   2.5899817  67.9344712
  45.0367888   2.3578478  67.7663682  42.5634781  53.2894876  65.3970848
  41.6225639  53.4635296  65.3720789  42.9663673  54.1566541  65.4410605
  20.6073762  32.9807401  44.4085217  20.2934552  33.8417077  44.1320753
  21.4953232  33.1408334  44.7281218  12.0852104  64.4156077  64.2191659
  11.3271872  63.8829067  64.4597112  12.5130478  63.9214208  63.5199033
   7.6619626  11.5570927  48.3868456   7.3556901  10.6646979  48.5482693
   8.0517293  11.8304408  49.2172623  63.7925100  39.8030066   2.3212107
  63.0793142  40.4191828   2.1541467  64.0303087  39.4714189   1.4553404
  73.5746336  12.8837490  40.5305195  73.3961105  13.8230634  40.5757999
  72.7095366  12.4744296  40.5477047  31.6993523  52.5223207  34.2722130
  30.8045579  52.4300241  34.5994186  32.0133782  53.3388615  34.6606469
  70.3448057  39.8853445  28.2668233  70.2097797  39.8049664  29.2110372
  71.1185312  40.4424810  28.1820893  23.9800890  81.3348995  11.4081860
  24.0000732  80.6122445  10.7808089  24.3442781  80.9643068  12.2120881
  77.9080915  20.4746032  25.4655647  77.4399424  19.8549950  26.0251641
  77.2821140  20.6944299  24.7755933  77.2453070  50.4471064   4.4722027
  77.2722483  49.5103264   4.6670157  76.3347816  50.6151676   4.2294347
  85.9309068  59.1726460  66.4177106  85.7225957  58.5312142  67.0969786
  86.8801847  59.1098990  66.3120599  38.2831152  19.9201371  55.0092314
  38.8611181  19.6554161  55.7248185  37.5438698  20.3458334  55.4434429
  56.2561321  31.2572551  28.5775042  56.7316484  31.7585278  29.2399549
  56.5289831  30.3510976  28.7212491  68.0273199  56.3056993  33.5866904
  67.6341486  57.1694946  33.4621739  68.9670897  56.4768839  33.6480570
  85.9453773  43.8084745  19.5728493  86.1051941  44.3618250  20.3373694
  84.9945164  43.8198948  19.4634724  16.9906331  40.3827333  42.2263908
  17.7665234  40.2419758  42.7689886  17.2608090  41.0437822  41.5890121
   1.6642993  29.4628357   7.1951832   2.3606293  30.0826763   6.9780363
   1.9957869  28.9874576   7.9570021  84.3331256  45.0500395  64.4759570
  83.7823596  45.7977607  64.7079115  83.7807384  44.5126664  63.9082144
   3.6820698  51.6037703  23.2494974   4.6310139  51.5064812  23.1702948
   3.3987713  50.8173227  23.7158322  70.6707335  14.3065870  10.5213642
  71.1186409  15.1244879  10.3053808  70.2914572  14.0150499   9.6922773
  12.4233723  33.2607818   7.2800106  12.2768212  34.1747117   7.5239009
  13.2395936  33.0233788   7.7200842  56.1539030  27.8834534   6.2887043
  55.2742863  27.9466891   5.9165341  56.0259104  27.4531794   7.1341109
  49.8500156  21.3415670  26.6290236  50.7614279  21.0552001  26.6886353
  49.5360422  21.3310862  27.5332022  39.0137878  32.8727879  64.7043042
  39.5922867  33.5862758  64.4350378  39.2685143  32.1355452  64.1494898
   1.7857266  11.1871457  30.0373960   1.0651303  11.7507267  29.7557044
   1.3768006  10.3360903  30.1946187   1.1552430  13.4490442  42.6888990
   0.8668614  14.1686809  42.1274805   0.3845978  12.8876388  42.7734900
  70.7744312  56.4009905  23.7121272  70.3766584  55.6423855  23.2848883
  71.7093372  56.1974478  23.7397194  72.3222256  10.5611444  26.0937214
  71.4827442  10.2551961  25.7503629  72.1608114  10.7073176  27.0258212
  63.1437016  67.1442461  35.5478549  64.0057325  66.8018341  35.7842636
  63.0087996  67.8835106  36.1407447  29.6443463  20.6332922  17.7187121
  29.3586350  20.0042129  18.3811760  30.5963422  20.5372405  17.6920152
   8.5498810  67.7335024  20.9941292   7.6647092  67.3795462  21.0802603
   8.6031151  68.0267620  20.0845146   0.0087739  49.5573425  16.8352056
   0.1682377  48.8339090  17.4413776   0.8754922  49.9302149  16.6739869
  68.8769913  29.9666119  30.2904558  69.4973707  30.0991726  29.5736647
  69.3384600  29.3948674  30.9039617  76.7473793  24.4624519  33.6771178
  76.8752289  24.7245407  34.5888186  77.5905514  24.0940714  33.4133148
   1.1389161  59.2938566  62.2368097   0.9258462  58.3922815  61.9959736
   0.3048707  59.7601938  62.1808815  36.3776501   0.5190827  65.9609900
  35.8219059   0.5085446  66.7402647  36.2695082  -0.3514265  65.5779008
  38.1889153  36.7636251  24.2460895  37.7820206  37.1262622  23.4592175
  37.4567891  36.5999055  24.8405790  58.4420490  16.2569988  37.2935414
  58.2525444  15.3497243  37.0544362  59.3750238  16.3637018  37.1080470
   6.0457612  33.4205723  17.1188438   5.4030228  33.3426380  17.8238571
   5.5201054  33.5338879  16.3269603  76.6273785   4.8684931   2.4117926
  77.2106457   5.4067582   2.9468635  77.1072578   4.7351238   1.5943828
  56.0796412   4.0114857  62.6303844  55.6135996   4.0922715  63.4625558
  56.3890131   3.1057717  62.6160709  66.2656250  49.8308291  64.6843688
  66.9540992  49.2140182  64.9329226  65.7746950  49.9801584  65.4924033
  82.0309027  81.1550748  18.9749360  81.9044741  81.0489956  18.0320704
  81.4687117  81.8931189  19.2104363  59.1415787  24.4636488   7.3308295
  58.8479424  23.6017275   7.6259601  59.0928793  24.4192505   6.3759011
  67.0900496  78.7004665  32.1648097  67.5248297  79.4852132  32.4985218
  66.2447985  78.6857126  32.6137710  83.6160755   5.1459062  23.6226702
  82.8047371   5.4236478  24.0478945  83.3276844   4.6186960  22.8776121
  52.0935495  74.5302452  20.1191592  52.0304640  74.3782807  19.1762078
  52.9953154  74.8210371  20.2551007  16.0664082  41.2282658  20.4201865
  16.7725278  41.2664175  21.0653067  16.4841557  41.4691353  19.5933235
  54.9208021  43.5836601  12.9586411  55.4110718  43.0981350  12.2952163
  54.1161585  43.0793095  13.0786872  13.0756052  77.7510015  46.0497046
  13.8004931  77.8747482  45.4369593  12.3264702  78.1650526  45.6212378
  31.9764765   1.2326170  69.5097954  31.2373217   1.5975739  69.9963035
  32.6005562   1.9554545  69.4444856  65.4522467  18.5506034  30.5693650
  65.8578300  18.1944692  29.7788572  66.0474920  18.3022892  31.2766528
  56.9363737  26.1578608  23.3110595  57.2613287  25.9402966  22.4373865
  57.6453161  26.6608047  23.7119102  63.0663443  67.9121828   9.8029751
  63.7283087  68.1430101  10.4547048  63.4793091  68.1087875   8.9621186
  55.4996443  70.3049946   4.5248270  54.9929047  70.2709150   5.3361732
  56.1480522  69.6070480   4.6179166  61.9982815  18.9981043   8.1695920
  62.0341158  19.9533331   8.1197339  62.0938873  18.8031709   9.1018438
  25.9446541  75.5079677  59.8347686  26.5431324  75.7044508  60.5554913
  25.7534042  74.5749023  59.9298535  69.9899769  18.2043242  11.8342268
  69.1568375  17.7950478  11.6005504  70.6545496  17.5933135  11.5160501
  65.7001925  32.3420048  20.6644225  66.0956335  32.0789194  19.8333752
  64.8644829  31.8759990  20.6901526  67.0565653   3.9727545   4.1754445
  67.4038076   3.4176198   4.8736426  66.7378378   4.7542685   4.6269774
  15.6828118  11.9344473  57.9593468  16.3436795  12.6141059  58.0918407
  15.7575226  11.7050624  57.0330477   5.7299710  54.5074463  16.0445321
   6.5258790  54.8274708  16.4691985   6.0374165  53.8391542  15.4320765
  10.9405232  39.7423053  12.2113752  10.8725739  40.3368759  11.4643121
  11.8768693  39.7101021  12.4074614  43.8624001  51.5162754  11.4074636
  43.7503911  50.5726576  11.5226626  44.2792321  51.6051197  10.5503786
  67.0272303  42.2117853   2.1058436  66.4319038  42.0736694   1.3691318
  66.7934990  41.5284252   2.7340281  35.5683334  80.7592525  27.5387192
  36.1720903  81.4001858  27.9140997  35.6936415  80.8374102  26.5929794
   4.7305108  46.4969921  42.1316004   4.6538163  45.7500219  41.5379763
   5.5500603  46.3456202  42.6024055  64.2351873   7.0403267  66.0034151
  64.4388922   6.5061070  66.7711039  64.8908289   7.7376105  66.0160290
  77.3884201  45.5731487   2.0593235  77.8133965  46.1087513   2.7292174
  76.6101933  45.2216625   2.4918152   3.9144421  20.4717398   3.7644899
   4.7510338  20.6820416   3.3496216   3.4835053  21.3189340   3.8775575
  22.6998902  24.4790316   7.8241140  22.2200299  23.6688280   7.9959607
  23.4777070  24.4189620   8.3787578  73.9051199  50.5292511  19.2925990
  74.3483877  49.8492479  19.7998857  74.4802666  50.6820011  18.5428596
  73.5119343  41.6691256  22.8265214  74.4686460  41.6390419  22.8211641
  73.2723331  41.8325281  21.9143128  71.5344484   7.0691134  53.2275723
  71.7947252   6.2840821  52.7456866  71.4723642   6.7814566  54.1384123
  10.7194329  26.7846537  22.8665972  10.4380894  26.8969274  23.7746024
   9.9040890  26.7118335  22.3704791  40.6537232   9.6042559   7.5815167
  40.9617743   9.8857043   8.4429850  41.3956198   9.1311953   7.2046484
  10.1860920  80.1264455  70.2471269  10.6608263  80.0706508  71.0764327
   9.5316616  80.8099439  70.3912888  79.8368120  40.6993818  40.9459686
  80.2601910  40.4420948  40.1269531  79.4329071  41.5451050  40.7514238
  44.9302244  30.1090980  19.4520593  44.0519285  30.0364161  19.8256171
  45.0870275  31.0513496  19.3903422  34.3507552  30.2110004  25.2145648
  34.4727993  29.3096900  24.9162769  33.4345984  30.2504754  25.4890323
  15.5813845   5.0024058  67.9364587  14.7464903   5.4432227  68.0941354
  15.3596790   4.2664982  67.3659174  24.5526219  58.5803413  36.6426158
  25.3918076  58.1408453  36.5053439  24.7779847  59.5071459  36.7231178
  64.9234343  30.5737948  27.3081756  64.1098022  30.0700450  27.2864914
  65.3139448  30.3616786  28.1559610  29.3526093  79.4633033  53.9491139
  29.2848888  79.1528513  53.0461930  29.3144623  80.4170897  53.8779436
  38.1811906  33.0156636  27.5962496  39.1324998  33.1164145  27.5632191
  38.0081750  32.2126555  27.1048498  18.3146668  50.6955433  31.6845870
  18.7710953  51.4158678  32.1193743  17.8075600  50.2782583  32.3809671
  79.0828466  51.9566870   9.5726961  79.4370174  51.7236042  10.4308712
  78.4525585  51.2632799   9.3773389  76.8399048  52.4001789  20.8068204
  76.3168859  52.5595331  20.0211453  76.6056347  53.1144238  21.3994408
  69.5244940  36.2234665  47.9428731  69.6663435  36.6502119  48.7878595
  68.7572439  35.6680275  48.0808698  12.0768992  76.5825250  61.5321587
  12.6170174  75.9752228  61.0265033  11.6870800  77.1599009  60.8757226
  20.0440598  41.1498213  10.2311897  20.3636075  40.7343817   9.4302320
  20.0325680  42.0850801  10.0277448  73.2340391   8.2777430  60.9642969
  72.8275831   7.5900484  61.4916532  72.5046595   8.8366343  60.6962059
  11.2695313  28.4311414  52.8011894  11.2361909  27.4852610  52.6582479
  10.5461121  28.6081505  53.4024858  23.0800152  46.7475224  20.1928663
  23.4855080  45.9189558  20.4483700  23.7712193  47.2191668  19.7280860
   6.4496709  12.1566522  18.1801677   5.9277917  12.6698601  17.5633276
   7.0058346  11.6092491  17.6258564  18.7273884  50.9430313  27.3427391
  19.4639016  51.0926533  27.9355288  18.7568474  50.0046349  27.1562386
  72.3058653  42.2460032  30.9024596  71.8857288  42.4447441  30.0656700
  72.9294109  41.5491772  30.6978679  86.4094734  44.4781017  35.2672887
  85.5664635  44.1793013  34.9262905  86.5818501  45.2944469  34.7981429
  80.1327991  63.2949781  25.6929231  81.0746288  63.4644461  25.7145166
  79.7476101  64.0201998  26.1847663  14.2022706  40.5143929  36.5005660
  14.4274617  40.7113552  37.4098110  15.0377083  40.5467653  36.0344934
  16.1590005  44.2117786  47.3409319  16.7885399  44.9266863  47.4348068
  16.5548039  43.4803343  47.8148222   2.1270085  32.7271676  23.3784246
   1.5763760  32.2265601  23.9804435   2.4455548  33.4631681  23.9009786
  23.9737535  29.2986178  65.3698397  24.6782732  29.0997577  64.7531271
  23.5200834  30.0469589  64.9820280   0.1737125  28.5057235  51.9807196
  -0.1303730  27.6229548  51.7698002   0.4695751  28.4464717  52.8891182
  39.3303804  66.5215968  26.1356701  40.1451425  66.6029929  26.6314186
  39.5768921  66.0374998  25.3475632  31.1643444  74.1446565   4.0819897
  31.0210925  73.2825445   3.6915125  30.2843746  74.4992589   4.2090429
  75.3813075  81.0430336  69.9488211  75.6117474  80.1587868  69.6637964
  74.4311952  81.0891056  69.8420811  34.5983444  72.5762127  10.4816116
  33.7403457  72.6860593  10.0717320  35.2236275  72.7321313   9.7738423
  53.8158392  45.2786207  60.1397276  53.7728452  44.3351030  59.9842834
  54.3435168  45.3667927  60.9334612  54.0482425  56.8075943  56.6728878
  54.6901368  56.5291786  57.3261023  53.2365178  56.9201183  57.1675348
  65.2185726  31.8179250  62.4629688  65.9859871  32.0589542  61.9441128
  64.6756434  32.6062369  62.4680138  83.5848507  23.9402936   0.9270157
  84.1912636  24.5233939   0.4704060  83.6505493  24.1986821   1.8463339
  44.6852247  71.7356609  30.1782002  45.4626028  71.7638610  29.6204151
  43.9902369  72.1142148  29.6397556   1.8822004  68.1408501  41.7998934
   2.2680101  67.3185873  42.1020031   2.0898101  68.7706852  42.4901438
   7.3765008  55.2608036   6.1988606   7.2155873  55.5785512   5.3103890
   7.2454087  56.0285925   6.7552294  14.4274330  42.1025705  62.6560879
  14.1208494  42.2494030  63.5508966  14.0237296  42.8049755  62.1462965
   9.6775524  81.2087701   8.8434805   8.9074795  81.3060735   9.4036163
   9.3651132  80.7045411   8.0922379  85.0198167  64.0305805  27.0515585
  85.6477486  63.4900236  27.5308585  85.1038820  64.8998308  27.4434447
  52.7819058  23.4540198  13.3484520  52.7183881  22.5020049  13.2718815
  52.9393980  23.6094210  14.2797341  67.0011448  31.0344505  66.2680435
  67.6724791  31.2890863  66.9010544  66.7135238  31.8602419  65.8787203
  83.2025530  60.5581617  63.8051987  83.6401754  59.7082329  63.7568808
  83.7549856  61.1419010  63.2852936  31.2398005  67.3859882  59.5437860
  31.0169649  66.4757204  59.3488646  30.5078793  67.7038145  60.0724745
  25.8498716  43.6807680  56.2465239  26.6581202  44.0405416  55.8811092
  25.8652687  43.9436340  57.1667910  13.1241119  71.9463158  55.0471830
  13.0044079  71.3124371  55.7543612  13.6786616  72.6275492  55.4274845
  78.8696622  25.2912617  41.5790224  79.0246653  24.5071602  41.0523415
  79.5885449  25.3012896  42.2109556  38.1001846  66.5825294   4.9698939
  38.2487003  65.7705449   4.4852699  38.9683918  66.8372487   5.2822508
  16.0741810  73.8223337  23.0550923  15.4619328  74.5353817  23.2366051
  16.8091790  73.9811371  23.6473717  61.6325253  35.4448626  21.5155090
  60.6990078  35.6307051  21.6167034  62.0487165  36.3067982  21.5063919
  73.1938490   2.9374859   8.9301790  73.6972269   2.3524544   8.3639826
  73.6518153   2.9103587   9.7702755  68.0685996  70.3761673  52.5003052
  67.9069733  69.7201681  53.1783676  68.9560961  70.6887007  52.6761055
  21.3827459  65.3039979  25.0221028  21.5213750  65.6857775  24.1553463
  22.2198967  64.8942064  25.2399983  66.1378383  80.0816917  54.1187286
  66.8622386  80.6194592  53.7989187  66.0980987  79.3457031  53.5080099
   3.5171733  15.7952426  23.2725777   3.1743655  16.6321919  22.9591526
   3.8793287  15.9930823  24.1362538  86.0529455  16.4923070  23.3829559
  85.6623467  16.0025952  24.1067280  85.6922444  16.0845540  22.5956406
   2.9306364  32.3540878  70.2788162   3.4658456  32.6933813  70.9962177
   3.4167567  32.5851774  69.4872856  71.1954963  59.2258549  22.8032446
  70.3234577  59.6172428  22.7522850  71.0417675  58.2855844  22.7111340
  71.2982735  21.3702366   3.0711569  70.8090373  21.6466115   2.2962393
  71.6390404  22.1841595   3.4421553  50.7747046  78.4484910   3.9755835
  51.3128416  77.8910612   3.4135212  49.8820393  78.1278871   3.8467659
  16.9362359  81.6347622  11.4040913  17.5698821  81.2671875  12.0202126
  16.2939124  82.0789503  11.9575752  72.7529680  38.7246704  46.5900278
  73.3055531  39.4880939  46.7575550  72.8590583  38.5528994  45.6543589
  23.0985427  30.1537466  70.4442215  22.3836756  30.2537417  71.0728693
  22.9022622  29.3364024  69.9863434  16.5700436  40.2884245  63.5991526
  16.1825693  41.0847902  63.2359791  16.5600979  39.6646309  62.8731966
  70.1969170  57.6386976  65.0918388  69.7619795  57.0373392  65.6963444
  69.9504387  58.5100460  65.4020548  15.0129399   6.1195920   0.5009903
  15.6667885   6.1602757   1.1988892  15.1340565   5.2545760   0.1094450
  21.9922686  55.6571293  67.3783970  22.2166324  54.7350454  67.5035238
  22.1582794  56.0616970  68.2298660   9.4557959  39.2297411  64.5161772
   9.6297634  39.4720936  65.4257011  10.2483141  39.4856763  64.0443277
  67.9740259  11.6794894   6.2677111  68.4204575  11.1138556   5.6376328
  67.0474043  11.4589570   6.1730017  53.2997512  51.0184167   2.1653141
  53.4978318  51.6341660   1.4597334  53.6791196  51.4198563   2.9470791
   0.9121356  18.8292334   2.9250015   1.8529615  19.0023873   2.8918852
   0.5098138  19.6243308   2.5754513  69.4581577  29.0931103   2.5223221
  69.7659596  29.3758843   3.3834423  68.6721083  29.6162627   2.3652615
  22.3710045  43.9188359  17.1435036  22.1847424  44.2474816  16.2639965
  22.3931155  44.7026990  17.6924004  52.4353280  27.7785514  15.2775063
  52.4076119  26.9728348  15.7935394  53.3680573  27.9750655  15.1901592
  17.2836098  30.2808879  31.9218983  17.9064831  29.9953578  31.2535156
  17.4074969  29.6644995  32.6436676  68.2866590  24.7777127  60.3510666
  68.1277458  23.8435315  60.4862690  68.8926808  25.0213098  61.0508013
  21.5286016  47.2459745  68.9517498  21.4155126  46.3892794  69.3634748
  22.1191835  47.0822525  68.2164669   0.3239390  62.2855043  59.9336290
  -0.6257688  62.3655987  59.8449039   0.5162925  61.3913059  59.6514273
  64.7040152  68.3753538  54.0943861  65.6339382  68.3365870  54.3179274
  64.5041203  67.5051403  53.7494278  64.9664071  22.3424266  15.7533993
  64.9579635  21.3890526  15.8384957  65.6435611  22.6314948  16.3650669
  47.6880702  35.1936457   6.4929594  47.5991866  35.9341262   5.8929409
  47.7613291  34.4294999   5.9211697  79.7746643  24.9102614   9.0869631
  78.9981231  25.4644416   9.1650833  79.9984988  24.9413273   8.1568207
  58.3181137  17.4264739   1.0203661  57.7785834  18.0328248   0.5129399
  58.8800767  17.0045302   0.3704466  15.6832242  65.3379202  68.1621742
  16.1628914  65.0249624  67.3952293  14.7783113  65.4207659  67.8613424
   0.7377872  23.1248496  18.7871136   0.6532917  24.0685771  18.9230408
   1.4385924  22.8589175  19.3824066  83.6126512  28.1180167  52.2360754
  82.9659139  27.4250460  52.3693228  83.8740792  28.0286503  51.3196135
  11.0705626  56.5252161  45.5719805  10.6665576  56.9418240  46.3331985
  11.8475223  56.0891294  45.9218311  12.2082715  79.3728422  14.9412216
  13.0283622  79.6978735  15.3127541  11.8899910  80.0929068  14.3967594
  82.2474441  53.6001847   7.4876990  82.1582421  54.3028042   6.8438067
  81.5352663  52.9947064   7.2817101  13.3074324  25.2146195  61.1081648
  13.8282244  25.8438920  61.6071844  12.6411192  24.9123334  61.7253208
  20.0380645  79.5617794  41.4619507  20.8452068  79.3222331  41.9173302
  19.4642041  79.8958515  42.1513809  32.2076864  31.4498376  51.3636303
  31.5087174  31.4428567  50.7097006  32.3859773  30.5248593  51.5335178
   4.2489204  27.7857373  38.3895935   3.4273133  27.9315255  37.9206146
   4.7337494  27.1716473  37.8381695  53.9419197  53.0105019  69.7940683
  54.0877747  53.3279562  70.6852388  54.8190975  52.9450178  69.4165707
  55.0073425   3.6469411  50.7612753  55.9248106   3.3941793  50.6583405
  55.0022761   4.2248296  51.5243292  82.0922139  59.8599243  52.0164490
  82.3228347  60.7130098  52.3842716  81.2471425  60.0033379  51.5903997
  64.7453277  68.8074516  12.0638718  65.6695668  68.8755773  12.3034062
  64.5459048  69.6416663  11.6389622  31.7556618  -0.0417472  60.0608301
  31.7525746   0.8892011  60.2834368  32.1766631  -0.0812770  59.2020941
  54.8182058  61.2629843  49.3824720  55.6475305  61.2349415  48.9053297
  54.9381255  61.9570923  50.0305986  62.6295226  13.2920001  12.9056801
  63.2938191  13.1969855  12.2230972  63.1140652  13.1995556  13.7259831
  30.9807451  39.2936944  18.6113179  31.0943308  38.5627984  19.2188787
  30.7151571  38.8823747  17.7888131  61.0976545  49.0934210   3.9439453
  61.4443795  48.2165133   3.7794890  61.2919251  49.5817159   3.1439079
   1.7013875  66.9936848  61.1897469   1.3456029  66.6661501  62.0158052
   2.2551581  66.2820578  60.8685637  16.7327547  32.1836686  67.4385071
  15.8842909  32.4076295  67.8208447  16.6698492  32.4747133  66.5287971
  31.8079267  17.8819799  52.4064302  30.9802432  18.1241845  51.9910860
  31.8593554  16.9318914  52.3018837  10.1817346  79.7532034  57.2714376
  10.9940219  80.2467918  57.1583509   9.6953571  80.2413559  57.9357958
  69.3719717  26.6841624   6.1293329  69.8972639  27.4842951   6.1386408
  69.6548852  26.2028573   6.9068541  78.9210638   4.9349520  28.4702076
  78.3847293   5.1639388  29.2292465  78.3068665   4.5341990  27.8550781
   6.5161435  81.6255878  11.6536297   6.0300319  81.6197084  10.8290733
   7.0910351  80.8622693  11.5981926  44.2191593  78.7659811  21.7869343
  43.7623338  77.9368566  21.6451897  44.7480421  78.8859342  20.9981884
  80.4448240  32.5862432  66.4827633  80.5790340  31.6392875  66.5214491
  79.5567566  32.7160764  66.8154955  61.0382079  53.0643415  48.4777355
  60.3095650  53.5882473  48.1448078  61.7992877  53.6405802  48.4074402
  49.2662764  53.4529400  61.7452002  49.0949392  54.0875673  62.4409914
  49.6966410  52.7218485  62.1885061   7.6183145  11.2341165  30.2406859
   6.9327919  11.7825555  29.8592424   7.4848287  11.3065480  31.1857605
  23.2267046  23.5180974  55.9159899  22.3978567  23.0903888  55.7007980
  23.0107141  24.4494677  55.9621382  26.3352060  38.0986238  65.0134802
  25.6090569  38.6978602  65.1862764  26.0246563  37.2492671  65.3271484
   5.8549821  64.5016384  35.2803993   5.8018696  63.5467052  35.2415228
   4.9629414  64.7986460  35.1007295  57.0098915  48.8304112  18.4419693
  57.6091948  48.1185601  18.6663307  56.2634591  48.3944676  18.0308403
   1.6995631  18.6052549  61.4943218   1.5977821  18.7398612  60.5521154
   2.6387179  18.7045765  61.6503811  65.2654978  20.1757357  32.9020561
  65.0926014  19.5110963  33.5688366  65.1923230  19.7061513  32.0711674
  70.9768089  13.3583281   3.0775990  70.4529973  14.1468308   3.2194342
  70.5356034  12.9035304   2.3601593  16.7504048  71.4821768  62.8162575
  16.7743015  72.2703171  63.3589363  16.6327953  70.7655191  63.4397936
  84.6165959  16.6989278  52.6121283  84.1837422  15.8452367  52.6208735
  85.1194588  16.7041635  51.7976761  71.2649199  45.8085988   6.0716786
  71.3414904  44.9946568   5.5738129  72.0229765  45.8040974   6.6561140
  81.6320901  55.2011013  67.3741436  81.1573821  55.9154606  67.7990866
  81.8795132  54.6177912  68.0916166  56.4789594  15.3621314   9.3438210
  57.0943870  16.0084174   8.9977087  55.6158855  15.7053301   9.1124214
  84.9896416  27.0799945  16.4778580  84.8911747  28.0290864  16.4019264
  84.4040235  26.8349955  17.1942772  80.2756461  35.4381583   9.7700943
  81.0841307  35.6553576   9.3059696  79.6884831  35.1114819   9.0883650
   0.8654389  12.5672314  18.6962570   1.7346987  12.3049519  18.9992870
   0.2824459  12.3494265  19.4235195  40.1591969  16.8286049  65.9337950
  40.1054955  16.0197532  65.4247713  39.3655539  17.3107874  65.7017183
  45.8547334  10.2808904  62.2569847  45.4540543  10.9657144  61.7215347
  45.9685819  10.6852197  63.1170893  15.0928700  57.1289492  65.5597401
  14.2242551  57.4190712  65.2812243  15.0552082  56.1740208  65.5056190
  47.3826083  13.9890120   9.4569363  46.5359720  13.9958880   9.0104021
  47.9746672  14.4396327   8.8547434  35.7499979   3.1680059  51.5474892
  35.5883787   3.9168977  52.1213245  35.0705765   3.2297277  50.8760691
  74.2594253  78.1099272  45.7028675  75.0642216  78.4778929  46.0677481
  73.9957463  78.7340546  45.0267220  11.0876513  59.2830849  58.7669325
  11.5776265  59.3566895  57.9479504  10.2915692  59.7928143  58.6164045
  49.4078509   4.7464227  59.5278931  49.2957966   4.2688512  60.3498411
  49.1854398   5.6518220  59.7447157  13.5511088  16.4331663  49.8421097
  14.3137097  15.8560240  49.8818541  13.2810926  16.5364516  50.7546091
  79.8819980  28.4488127  25.6094422  79.2302331  28.2973597  24.9249710
  79.9812135  29.4003842  25.6393589  21.5567064  38.4099197  64.2887306
  21.1337805  38.7970376  65.0552225  20.8486104  37.9636693  63.8243008
  37.0760522  51.3930485  12.7221073  36.5656504  50.6752846  13.0970062
  36.6067061  52.1842835  12.9864563  65.5880197  14.4445155  21.8192829
  64.9085000  14.2992756  21.1609615  65.2448734  15.1515267  22.3657478
   7.0734268  33.5884309  54.3220139   6.6010106  34.0353703  55.0243664
   7.2841817  34.2814898  53.6963272  85.6260172  54.1095209  61.7710161
  85.2894024  53.2267046  61.9245005  85.0923482  54.6705389  62.3337698
  79.8548159  56.7001507   8.3914007  79.0803966  57.2571824   8.4702601
  79.6754321  55.9575436   8.9681067  80.9845956  17.8787253  14.0440907
  80.3949960  18.6327765  14.0405144  81.4424117  17.9366324  14.8827137
  12.4301064  48.1258202  26.4094591  12.7831125  47.2864771  26.1142969
  11.9912112  47.9237986  27.2357702  64.2411010  11.4634275  49.4275141
  64.8663465  12.1658467  49.2488861  64.1922657  11.4233922  50.3826284
  17.2609174  65.3011417  51.3673878  17.2289848  66.0946226  50.8329725
  17.2839701  65.6206465  52.2693920  44.2124626   6.7960475   9.8244061
  44.7248157   6.7795441  10.6327690  44.5935115   6.1030743   9.2851319
   7.4711864  50.2510105   6.1279692   7.0503704  50.9319495   5.6031193
   7.8953998  49.6816723   5.4859938   6.1860308  30.8844874   3.6683001
   7.0068726  30.9763072   3.1845440   6.2762055  31.4840100   4.4090237
   3.7021253  75.6175327  40.6110287   3.2803732  76.4749289  40.5541992
   3.9979216  75.5558395  41.5192842  73.7935075  23.1545375  25.7917084
  73.1986662  22.6107953  26.3081803  74.5118257  23.3590195  26.3903965
  30.3935440   2.3595475  61.3908243  30.5673271   1.6826104  62.0448780
  29.7571779   1.9611596  60.7970572  55.9683977  42.2915242  19.0846600
  56.4435994  42.7842972  19.7536720  56.1722582  42.7422402  18.2651867
  48.8096456  81.5591358   0.8972468  49.7236483  81.5091489   1.1771263
  48.3622066  80.8941578   1.4205422  33.8368709  79.6525072  43.3892311
  34.4154350  79.5746420  42.6306595  34.4303910  79.7344135  44.1357292
  84.2224705  14.6087527  37.1709132  84.6764606  15.4121327  37.4252844
  83.6998757  14.3757379  37.9382682  33.1218123  56.7248964  43.5957146
  33.6936092  56.3381958  44.2588425  32.6456404  57.4123383  44.0614510
  54.8725860  75.3711389   4.1283573  54.9916880  75.3493117   3.1788458
  55.1524274  76.2498902   4.3847098  73.7281307   8.6699793   1.1793913
  73.7025007   7.9832099   1.8456663  73.2908043   9.4168255   1.5882982
  52.7313980   6.5241549   2.3648943  53.2314774   5.9833739   2.9762139
  52.3183992   7.1890423   2.9158796  54.3579453  18.7680648  16.8021168
  54.8369523  19.5562337  16.5460362  54.9480578  18.3139775  17.4036087
  85.9449133   3.8348315  26.5384163  85.1459273   3.3138154  26.6183914
  86.4377960   3.6414168  27.3358406  68.4127280  37.3160622   8.6427035
  68.0151447  37.6003335   9.4657101  69.1096946  37.9519723   8.4811844
  18.9511824  58.8526011  42.6364088  18.6430907  59.2340803  41.8143511
  18.5308075  57.9934788  42.6741648  26.3893001   3.4482717  44.4741535
  26.6881314   4.0511464  43.7933636  26.3623680   2.5942086  44.0427685
  34.8919616  14.0855836  63.9664268  35.2166818  14.2070626  64.8586321
  34.8188452  13.1365537  63.8652897  58.8124032  30.0153468  20.7654823
  58.4308576  30.0120518  19.8876251  59.0945166  29.1117451  20.9074177
  46.8944320  30.0377009  24.5030560  46.4097842  30.8388827  24.3044247
  47.7930209  30.3320143  24.6518864  50.6048362   8.7943029  61.5854454
  50.8365981   9.0780019  60.7011175  50.2602856   9.5815991  62.0069647
  34.6526798  14.7499488  28.0834545  34.2605051  14.0157578  27.6108135
  34.3616756  14.6352790  28.9881100  50.8290855  78.0809997   0.4998459
  50.4350941  77.9715632  -0.3656183  50.9135525  77.1898841   0.8389725
  30.0965180  81.3221286  38.0490078  30.9171681  81.2826370  38.5401405
  30.1657325  80.6132363  37.4095501  49.6443812   2.9255151  62.0016670
  50.2010123   2.5287580  61.3316107  48.8524250   2.3879003  62.0042610
  66.9118210  58.5843728   9.7728886  66.5658745  57.7428887   9.4754662
  66.5386185  59.2244408   9.1668667   9.7437364  40.4655218  53.0370951
   9.3777698  39.9682570  52.3056412   9.0898508  40.3861809  53.7316227
  66.0519138  23.8658307  26.7678513  66.6596183  23.7597630  27.4997486
  65.6929859  24.7460482  26.8801941  20.8280262  15.6367896   2.3686327
  20.2146086  15.5890916   1.6353716  20.6758532  16.5003798   2.7524151
  16.9889641  68.1499100  56.5238953  16.6641593  68.8554764  55.9645128
  16.2407982  67.5616837  56.6262150  64.4428977   9.3063567  33.0361904
  64.5463720   9.6105740  32.1345390  63.9581444  10.0076411  33.4714474
  83.5839924  31.5409539  12.3504128  83.3391484  32.3688624  11.9370712
  84.0996846  31.7981265  13.1147064  77.1778231  63.9104509  63.0032587
  78.0294591  63.6264658  62.6711464  76.7052793  63.0965281  63.1777954
  19.9324369  69.1594315  48.8592672  20.3420615  69.2303944  47.9970598
  19.8315394  68.2179880  48.9997482  81.6447746  64.6453047  47.2763681
  81.4229237  64.2845678  48.1347895  82.0997750  65.4646063  47.4711847
  -0.0125688  75.9487391  64.2400932  -0.5220516  75.1390934  64.2064571
   0.8771309  75.6634045  64.4480610  82.9149755  43.0812523  21.4077439
  83.6069616  42.4827836  21.6892018  83.0548080  43.1832669  20.4663242
  50.8854548  75.5967067  12.1224465  49.9501149  75.6861995  11.9397892
  51.2414996  75.1678847  11.3442578  26.8177485  41.0418510  32.5578070
  27.3779917  40.8316469  31.8106985  25.9499407  41.1749744  32.1764636
  83.1022864  66.7154217  47.8796482  82.7067577  67.1738768  48.6210060
  83.8988104  66.3235331  48.2377100  45.0778862  31.3753913   1.7309775
  45.1058170  32.1234677   1.1344589  44.9083110  30.6230996   1.1639418
  34.7639660  76.7130016   4.3214668  34.5376299  76.8601297   3.4031214
  35.7210205  76.7013143   4.3333639  29.1451383  42.2594833  51.4826727
  28.8435745  43.1672144  51.5190315  28.3457160  41.7383480  51.5573406
   3.5851949  60.5320024  51.0085487   2.9027721  61.0686159  51.4117622
   3.5056734  59.6805286  51.4385462  12.9034388  58.8174772  64.7486115
  13.0241549  59.2874098  65.5737257  12.0047593  59.0187073  64.4876242
  28.2571340  35.4738784  55.7049942  28.8225222  34.8594666  56.1730385
  28.5934138  35.4737735  54.8088074  75.2858635  53.4451363  18.7421478
  75.5813762  54.3300507  18.9562287  75.3349742  53.4006665  17.7872433
  10.7051587  22.9690981  53.6887646  11.4567208  22.3977399  53.5308552
  10.0860095  22.7482200  52.9929924  80.8310517  12.3214409  17.9195370
  80.9415325  12.6221821  18.8215222  80.5729445  11.4034865  18.0030407
  74.0416657  46.2652302  44.6211195  74.8018967  46.6770649  44.2104149
  74.2503380  45.3310871  44.6288872  82.3938152  64.6157265  59.3923426
  83.1378590  64.0607119  59.1587067  81.9853293  64.8338413  58.5546064
  48.0541184  16.4069388   3.6496700  47.8445091  16.8522809   4.4706263
  47.2070774  16.1157105   3.3121218   1.2330374  16.0534356   9.2160286
   0.9998974  16.7061923   9.8761715   0.4908428  15.4490874   9.2042030
  31.3374001  24.1569661  57.3188829  31.2678523  23.3352708  56.8328619
  30.6587344  24.7166394  56.9415045  12.3233604  72.8207874  61.2715483
  12.0953619  72.6669884  60.3547096  11.5267658  72.6041412  61.7560434
  13.6227489  27.6704216  68.2022333  14.4693136  27.2358155  68.0989027
  13.0869401  27.3238754  67.4887609  66.8530809  70.1433849  38.3073044
  67.6965808  69.9517012  37.8974295  66.4761185  69.2833710  38.4930801
  46.9739422  31.0952780   3.7807717  46.7222867  30.2415536   4.1329827
  46.4052758  31.2178443   3.0206217  34.7390637  62.3786423   7.2054638
  34.0802178  61.8667958   6.7362417  35.4709706  61.7737076   7.3262562
  69.4292971  20.4873727  26.1619629  68.6603126  20.6936524  25.6306042
  70.0557741  20.1141665  25.5419029  64.0878436  58.6438248   8.4343161
  64.2555889  59.2716763   9.1371025  64.3508365  59.1019318   7.6360668
  12.9730718   2.1999501  58.1653690  12.1462028   2.2770452  58.6413717
  12.9803411   2.9529046  57.5744057  40.7332381  30.2401946   3.4717573
  40.6723317  30.6116078   2.5916542  41.1983189  30.9044478   3.9803852
  44.0806484  69.9483728  52.5953102  44.5363808  70.7829618  52.4857378
  44.0245628  69.5881081  51.7102671  77.2685711  22.3169278  28.8621020
  76.8607561  21.4746617  29.0633368  78.1804459  22.2125196  29.1337824
  46.5467783  42.7352879   4.2932572  47.4791130  42.6927254   4.0807165
  46.4857062  43.4107182   4.9687542   9.1522300  73.4727430  65.5503130
   8.4525567  74.0210629  65.1952982   9.1605526  73.6714649  66.4866209
  81.9979748   2.1056769   2.6026882  82.2563442   1.6562674   1.7980112
  82.8163656   2.2222636   3.0852617  46.2007133  22.8370046  61.5455532
  46.3704435  22.2593736  62.2897053  47.0224039  22.8428792  61.0546112
  82.7801045  30.9966061   4.0141882  83.6601767  30.6230424   3.9677633
  82.2557887  30.4475329   3.4312262  77.3727533  35.6712744  10.3197731
  76.6176971  36.1447737   9.9705948  78.1196507  36.2397597  10.1321472
  41.6655104   3.8922834  45.7672834  41.3093082   4.7251748  45.4580116
  41.2381820   3.2317781  45.2219820  36.2425814  81.0420726   1.0072531
  35.5075846  80.5199050   1.3287367  35.8760796  81.5524314   0.2851452
  80.4475411  44.9873040   2.3495402  79.9956330  45.6947205   2.8094973
  80.7499608  45.3867219   1.5339197  11.0605745  14.5008611  60.6429482
  11.1561899  13.8621282  59.9364758  11.9576506  14.6889161  60.9188509
  74.6277734   2.8595660   1.1736454  74.1160604   2.9510090   1.9774021
  75.3744825   3.4455750   1.2971367  78.5808453  22.1762917  13.8567700
  78.2845577  21.3815758  14.3004765  79.1613873  21.8614791  13.1638779
   5.9117025  40.9661388  45.3632212   5.4502738  40.2244425  44.9718094
   5.7801801  40.8598709  46.3053656  66.5835087  17.4653863  67.5605011
  67.3797671  17.0916509  67.1829796  66.7935769  17.5917195  68.4857798
  35.6399821  19.9205731  64.1885185  35.3633712  20.3173493  63.3625126
  35.8645575  19.0191316  63.9578533  10.7863578  43.7946770  66.5847553
  11.5100035  43.5395024  66.0125221  11.2099824  44.2102978  67.3357739
  45.3467879  25.0604556  19.3971314  44.7939238  24.4542954  19.8902191
  45.2854142  25.8858225  19.8780026  80.3563413  21.8217108   1.5682854
  79.6203264  21.4784501   2.0749249  81.1238321  21.6486380   2.1134819
  18.9853655  25.6489038  56.0339069  18.6894528  26.5506696  55.9094524
  18.2658915  25.2228784  56.4998341  82.8430733  73.4702943  21.4054836
  82.3755177  74.2886136  21.2382187  83.7596258  73.7318204  21.4936032
  66.3955268  25.7118533  10.0474228  65.9527090  26.5294144  10.2748646
  67.2470805  25.7722113  10.4803719  66.5970127  18.5079240  23.9115000
  67.0878188  18.7598371  23.1292701  67.2697012  18.2819795  24.5538950
  78.7939891  33.8230107  17.5628533  79.4146141  34.4786666  17.8809323
  78.8386353  33.8936827  16.6093125  45.3900091  25.0088929  54.7360992
  46.0275821  24.4447850  55.1737261  44.9358670  24.4282865  54.1254568
  32.8657079  77.0100069  58.6157274  33.6575198  77.4687815  58.3350325
  32.4983096  76.6503763  57.8083134  56.3958089   0.4088735  67.1207905
  56.9093267  -0.3588153  66.8694353  55.9246556   0.6531762  66.3241959
  85.7816915  63.1915236  45.6108427  86.3694075  63.0956364  44.8614264
  84.9463948  62.8361464  45.3071642  29.5568595  14.6081183  18.3072819
  30.4259762  15.0081513  18.3363022  29.1247878  15.0277016  17.5633110
   4.1946015  62.7074862  70.2900410   4.8780924  62.5406313  69.6410179
   4.2213419  61.9446135  70.8675671  55.1445095  16.1003446  56.1099768
  55.7209317  16.7679738  56.4817858  55.7025473  15.6124066  55.5043840
  66.0556075  40.5234311   3.8810076  66.7579898  39.8731301   3.8790669
  65.3060332  40.0675080   3.4982456  16.2163624  40.8061097  34.7729935
  17.1421704  40.9800694  34.9428524  16.2065301  40.3749058  33.9184822
  32.3946700  28.6079285   9.1927971  33.0029473  28.7576125   9.9165596
  32.8749785  28.0406735   8.5896792  76.3835375  15.9786462  64.9538469
  76.4795868  15.1351976  65.3961182  75.6589739  15.8472776  64.3423080
  64.3350675  60.3568719   6.0138287  63.4180054  60.3896306   5.7415117
  64.7453978  61.0946343   5.5626454  75.3413555  20.4440043  13.2398285
  74.8408088  20.7886670  12.5003018  74.7171995  20.4291794  13.9653935
  72.6318845  45.6693623   3.2415404  72.8483137  46.4810441   3.7004198
  71.8536481  45.3401921   3.6912359  84.1038617  56.5712998  24.2174591
  84.5118388  57.3642609  23.8696160  84.1252431  55.9513734  23.4884419
   9.6591288  71.8050098  46.3117361  10.1776826  72.5891638  46.1316299
  10.2795124  71.0816669  46.2215328  71.6516344  17.9602956  69.9110794
  71.9177095  18.8777780  69.8505926  71.8992559  17.5829553  69.0669680
  14.2568843  77.6635955   5.2707209  13.4875266  77.3584245   5.7515396
  14.3390433  78.5864686   5.5111088  72.1551773  71.7806599  33.2426991
  71.2996253  72.1174691  33.5088219  72.7695819  72.1680997  33.8660969
  61.8785414  32.0552228  13.1202759  61.4708760  31.9730494  12.2581352
  62.0816704  31.1554310  13.3759083  41.7328016  17.3309945  45.9825087
  41.4243464  16.6077661  46.5284348  40.9491758  17.6380395  45.5265665
  58.6472945  37.3369382   2.5682940  57.8615968  37.2591756   3.1094612
  59.0987840  38.1082699   2.9109778  68.5705265  25.2177594  11.6185631
  69.4996759  25.4473326  11.6040863  68.5377785  24.3809006  12.0820584
  16.2538943   3.8215325  13.3370365  15.6700978   4.4757245  13.7210335
  16.6350731   4.2583201  12.5753655   0.9941277  30.2480719  24.3418755
   1.3487658  29.7918151  25.1049580   1.2635860  29.7122882  23.5958542
   7.5854564  66.1485434  65.9427786   8.4989327  66.0108519  66.1934471
   7.1665919  65.3003073  66.0886526  18.8764906  70.4744053  69.2600870
  19.7916543  70.7299089  69.3759441  18.3837247  71.2854576  69.3849945
  83.5800609  30.4250453  25.4831280  84.2937287  29.8691104  25.7959236
  83.3153280  30.9301446  26.2519039  32.3464807  47.1351597   4.1274370
  32.4215754  47.6017068   4.9598517  33.0803546  46.5206216   4.1302504
  70.0162240  40.1294205  11.3969578  70.8451792  40.4179261  11.0150780
  70.1649686  39.2123482  11.6273560   5.1901493  23.7206576  24.2832913
   5.2522955  23.3286641  23.4122528   5.4421291  24.6348641  24.1530480
  30.3727221  68.3538961  29.3594456  31.0443497  68.9043427  28.9567614
  30.8178067  67.5257254  29.5390654   5.7574336  79.8123382  26.2562718
   5.2444331  80.5149959  26.6554417   5.6572024  79.0725540  26.8553604
  13.7607035  21.5107701  40.1380982  12.8340373  21.7240737  40.0284542
  14.1570410  22.3216603  40.4568638  42.9674098  47.1917126  20.0870957
  42.1888014  46.6628907  19.9129070  43.6775454  46.5544770  20.1636566
  47.7706298  22.3922036  12.9708828  47.6151606  23.2527421  13.3601536
  48.0352100  22.5808785  12.0705284  18.3948970  52.8599310  33.0748248
  17.7284217  52.7382660  33.7510204  18.0120683  53.4986210  32.4733686
  16.8550126  27.1551942  65.1575279  17.5551109  26.8825292  65.7506084
  17.3113970  27.5373696  64.4079351  67.4117295  78.2510065  15.5006565
  66.9764654  78.0937980  16.3385452  68.3457558  78.1890486  15.7006230
   7.7025950  73.9212751  52.2780418   7.7990210  74.3839312  53.1104374
   6.7753935  73.6864948  52.2405243  13.8073573  23.6262868  20.9497132
  13.0855641  23.6846326  21.5756859  14.5738635  23.9242480  21.4395298
   5.2121346  22.3427438  68.2234049   5.2684252  23.2890557  68.3559275
   5.2416508  21.9750260  69.1066599  -0.2861738  65.7677412  69.6648359
   0.0368800  66.2262011  70.4405212   0.4997494  65.4045248  69.2566347
  27.6786217  38.7304280  13.4188618  27.8515229  37.8049729  13.5916771
  26.7275080  38.8133261  13.4877648  43.8189267  75.2657557  64.9917173
  44.1715144  76.0044146  65.4879999  42.9023218  75.2112579  65.2620840
   5.1431403  43.1871293  17.4294628   4.4831237  42.7771542  16.8704189
   5.1505265  44.1049359  17.1577706  52.5966494  26.1783742  36.8788910
  53.0636899  26.3570355  37.6950955  53.1801788  26.5029573  36.1930561
  81.9888553  34.2808507  12.4309124  81.3198194  34.9547885  12.5510372
  82.7528151  34.7570584  12.1056046  20.4641661  30.1778052  17.0431675
  20.1166758  29.5886872  17.7128185  19.8810944  30.0586913  16.2934555
  79.4128459  57.3432302  37.8431344  79.8609983  57.9672289  37.2721553
  80.1130229  56.7903614  38.1900072  53.1142380  40.7097123  12.0412506
  53.3113601  41.0742352  11.1784043  52.7642127  41.4485333  12.5391068
  74.0517752  15.9106301  63.5778999  73.2144157  16.3743733  63.5752869
  74.1844885  15.6507539  62.6662636  54.1138124  34.8277164  48.8790464
  53.3646464  35.4223704  48.9160395  53.7920331  34.0128064  49.2645454
  74.2061504  47.5333855  12.5929703  74.2213961  48.4739850  12.4161591
  73.2766243  47.3048852  12.5939049  85.7543143  46.4028237  17.1442856
  85.2079948  46.7018006  16.4173950  85.2174481  46.5487549  17.9231991
  18.8511157  54.3570566  46.2799072  19.5329261  54.8405457  46.7463875
  19.0991998  54.4227457  45.3577518   2.9009525   8.5394239  70.4499006
   2.6015155   8.7780141  71.3271952   3.4927480   7.8005361  70.5915213
  77.3022317  68.9491034  39.1526628  76.9161563  69.4902706  38.4639573
  76.7107009  68.2004261  39.2288613  71.1379635  69.1964769  34.0617394
  71.3714015  70.1035690  33.8644552  71.8579304  68.8767052  34.6054554
  22.0616231  37.6226351   2.4786772  22.3609528  38.4023116   2.9463782
  21.1534819  37.5090478   2.7590527  65.8224480  13.6933469  43.2420492
  65.5065577  13.3468198  44.0765285  65.1050202  13.5328054  42.6290607
  11.4947069  69.1545630  68.8244200  12.0472765  69.8308659  68.4326172
  11.9049203  68.9698839  69.6693182   6.7189798  19.4848654   2.9370035
   6.4739809  18.6220763   2.6026405   7.1574196  19.9114106   2.2007527
  31.5705968  18.8177156  67.1637964  31.4711614  19.5386647  66.5420485
  32.4956979  18.8385247  67.4087191  39.0606741   1.0483693  64.1394949
  38.5651271   0.3921651  64.6294641  38.8776146   0.8502339  63.2210922
  60.3369450  16.6301081   7.9856314  59.7492888  16.8662093   8.7033714
  60.7888788  17.4453709   7.7680601  12.6112223  68.1654167  54.4161940
  11.7004740  68.4465313  54.3281889  13.1180799  68.8606596  53.9967108
   1.9856712  74.9296427  61.7890930   1.9232538  75.0965261  62.7295637
   1.4124174  74.1775799  61.6407251  24.1180801  76.9641876  47.3828125
  23.6558914  77.6409626  47.8773737  24.8540759  77.4235630  46.9784403
  78.4663328  39.2475102  24.0863098  78.2449349  38.3839772  24.4348969
  79.0288457  39.0649579  23.3336510  47.3588969   3.8719484   7.0131411
  47.8960539   4.2657682   6.3256754  47.3586299   2.9364416   6.8105091
  12.8500065  28.0385087  10.4688515  12.8829989  27.2673390   9.9027695
  13.0780730  27.7077935  11.3376679  69.4193041  57.2031784  56.5075970
  68.5089385  57.3990965  56.7291451  69.5375430  57.5721788  55.6323290
  66.0680601  34.6946786  51.9216217  66.8424341  34.3418238  52.3598732
  65.4266485  33.9852450  51.9606365  67.9896276  23.7457513  47.6765013
  67.4436275  23.8409661  48.4569168  67.4375646  23.2721566  47.0542765
  27.4993062  63.9702463  44.9213982  28.1590033  64.4261456  44.3987274
  27.1462488  63.3032322  44.3326044  15.4858765  75.2624009  17.1107067
  14.7491631  75.2078507  17.7194084  16.2520203  75.0453637  17.6418842
   9.1092095  39.0986655  42.1487583   8.3217749  38.5987923  41.9335713
   8.9331636  39.4607995  43.0171456  52.5026187  51.4288399  18.3185257
  53.0797562  52.1809456  18.4507336  51.6673848  51.6976998  18.7010540
  21.3514790   9.4346926  15.0066628  21.5155730   9.9176905  15.8166184
  21.6427359   8.5428450  15.1964440  53.8766718  79.6715689  55.6356049
  52.9498339  79.7114229  55.8714247  53.8998699  79.1311121  54.8459196
  15.0268929  22.9483460  60.8493423  14.6877901  23.6893510  60.3471851
  15.1324157  22.2496652  60.2036381  51.9777873  32.3841784   0.7821335
  52.3314842  31.7034838   0.2096094  52.1404025  33.2015298   0.3112568
  21.6414647  -0.1017047  69.0145636  21.3163970   0.7964849  69.0763235
  22.4472152  -0.0301505  68.5028219  55.5878760  34.2019246   0.4733910
  56.5211227  34.4117568   0.5087914  55.1959711  34.7357533   1.1645235
  63.9710679  12.5604699   3.2443442  63.7811997  12.0905516   4.0563549
  63.5220399  13.4000514   3.3428873   9.6559677  29.9307368  25.3249897
   9.5746860  30.7664225  24.8653664  10.5959019  29.8308108  25.4758896
  62.6835861  37.4061606   0.4541649  62.4385744  38.1675265  -0.0716911
  62.4044475  37.6286433   1.3423218  69.1387074   0.8719396  47.8954411
  68.5690252   0.2146958  47.4957848  69.6188299   1.2519788  47.1597195
  66.0987775  19.2182492  50.6895065  66.1595766  19.8042440  49.9350882
  65.8557598  19.7898530  51.4178133  22.1055493  31.6225836  26.6482319
  22.9839835  31.8483803  26.3422836  21.6090617  31.4537547  25.8474602
  22.2644520  61.3897514  49.7340250  22.2770095  61.3239765  48.7791681
  21.3525081  61.2247038  49.9734974   2.8779587  26.4339278  55.7008328
   2.5917468  25.5830500  56.0329880   3.7428674  26.2663386  55.3265633
  54.5167820   3.0203675  65.7773161  53.9948647   3.8226174  65.7621908
  53.8714926   2.3141622  65.7440138  26.4348252  20.0078820  38.6533427
  26.2286819  20.9146642  38.8802290  26.0939999  19.8997354  37.7654386
   8.7465398  17.8018045  63.8095617   8.0308573  18.3716630  63.5279846
   9.5377712  18.2349347  63.4892797  66.2956330  27.3497698  17.8945030
  65.4417720  27.5947020  17.5379051  66.7155090  28.1838296  18.1049217
  49.2273681  26.2302445  46.9217730  49.5734374  25.9744977  47.7767944
  49.9689619  26.6394376  46.4758730  67.3714495  70.1649952  60.3702116
  67.7198935  69.3832588  60.7988167  66.8630028  69.8273563  59.6328402
   0.8761981  50.6115866  66.6846037   1.0810144  51.5244484  66.8869925
   1.6340952  50.3000879  66.1898375   2.5692043  71.9719076  25.7056856
   2.5657049  72.9115200  25.5230570   1.6592589  71.7008924  25.5841041
  46.4494991  81.2294197  62.7999783  46.4001751  82.1802425  62.7012920
  47.1533680  81.0905838  63.4336376  42.5632238  81.3342476  69.4328785
  43.2937908  80.7173443  69.4768381  42.9281521  82.1606064  69.7494125
  72.5892877  60.5767918  44.8634863  71.7421018  60.5989885  45.3084755
  72.5680720  59.7704649  44.3481112  36.5460048  17.6723146  45.1671696
  36.6328709  17.3267983  44.2787409  36.9848756  17.0255136  45.7196808
   2.4488649  31.5835164  10.1470436   3.3345041  31.4668486   9.8031487
   2.5539240  32.1932194  10.8774246  34.7472405  74.0839481  67.0123816
  34.5264435  73.1576204  67.1093225  34.6826792  74.4395876  67.8987122
  86.5308722  31.4293597   1.1430802  86.1917647  31.8112443   0.3335108
  86.8428048  30.5616162   0.8862843  22.1165959  59.2945718  60.4287863
  21.6292839  58.9052819  59.7026873  22.0182530  58.6685323  61.1461687
   2.0406570  74.3034172  50.0721931   2.2958075  75.1009750  50.5359077
   1.7422432  73.7104702  50.7618284  78.2200419  50.2701950  50.1233482
  77.3701351  50.0187063  50.4847956  78.8577192  49.9241877  50.7477474
  24.0644836  47.2454357  70.5683279  24.5413184  47.7979088  71.1877060
  23.2824063  47.7517319  70.3486633  16.3134646  45.3862858  58.5975027
  15.4666007  45.2747250  58.1655216  16.3161838  44.7284079  59.2927885
  68.4676429  65.0879166  12.6899494  68.2328304  64.5647595  13.4563698
  68.9696344  64.4897912  12.1363415  78.9087383   1.8958520  62.8007841
  79.0855543   2.7887773  63.0968380  79.6968834   1.6423081  62.3203993
  25.3109393  55.8390019   8.9424290  24.5515046  55.9727452   9.5095314
  24.9636063  55.9193108   8.0540957  79.1795954  28.1645177   1.0084976
  78.6473736  27.4340365   1.3237251  79.7008928  27.7917407   0.2975001
  67.3327455  30.4617427   2.0404352  67.6000115  31.2793849   2.4602760
  67.2794732  30.6769059   1.1092533  19.6289444  65.7731390  59.5696783
  20.2499199  65.4546022  58.9145803  20.1713276  66.2341881  60.2095890
   9.2072623   7.8792428  57.9723978   8.7866061   8.4458016  57.3256493
   8.4806149   7.4947976  58.4627295  73.5789101  28.1345510  54.7517061
  74.0120022  28.3689927  53.9309168  73.1057541  28.9263295  55.0075197
   7.1962798  81.2290668  31.0765123   7.3161721  80.6578827  30.3178239
   6.6997308  81.9745541  30.7389832  68.4068521  40.8794186  39.5689930
  68.7509653  41.1672089  40.4145683  69.0539428  40.2511761  39.2483486
  86.1109952  79.9761438  68.4389067  85.9914603  79.0680027  68.1610203
  85.7086370  80.4947472  67.7422047  73.8445529  35.4779313   6.5795006
  74.4303295  36.2097380   6.7732968  74.2692896  34.7188590   6.9790568
  31.2526593  25.6513283   9.0362229  30.9432778  24.7457669   9.0579952
  32.1812138  25.5926678   9.2611183  13.5364866  58.2279873  61.7360449
  13.2322800  58.0489016  62.6257753  14.0105522  59.0564966  61.8072224
  79.7318975  65.1464128  41.9166327  79.0005390  64.8093556  41.3991976
  79.8458902  66.0467004  41.6121244  48.6716823   6.8919133  61.0376501
  48.5537498   6.3258790  61.8004942  49.1253416   7.6625394  61.3790512
  36.0053108   8.9645719  59.8698521  35.3912203   9.6535920  60.1235580
  35.4934625   8.1572579  59.9198151  58.2328097  37.3726701  66.6455984
  58.7067286  36.9264936  67.3474264  57.7689616  36.6722154  66.1868572
  26.2586436  76.0549424   2.4478306  25.7600340  75.5889485   1.7766585
  25.6358370  76.6807244   2.8176130  61.8662827  35.2699422  56.7580128
  62.6827161  35.4896306  56.3092327  62.0490329  35.4362916  57.6827621
  34.5663548  69.2735815  47.4930763  35.2241135  69.0556812  46.8326950
  34.4365525  70.2173185  47.3995590   3.7818298  11.7509101  22.9056706
   3.5826621  12.4712680  22.3076309   4.0128312  12.1803353  23.7293591
  66.1840823  65.6864808   4.7980608  66.1586228  66.2245629   4.0068306
  65.3392914  65.8416627   5.2205290  63.1000450  14.8468802  31.4504494
  63.1298849  15.7953141  31.5762200  62.1665665  14.6412299  31.3998760
  83.8949522  52.8612492  25.6761707  84.3806657  53.6266778  25.9834637
  83.4598836  53.1586049  24.8770966  36.0413601   2.6138326   0.8988108
  36.6447283   2.0701429   1.4053454  36.3047339   2.4795934  -0.0116001
  12.4664149  69.4226525  10.8823170  12.4608884  68.4726021  10.9989895
  11.9192872  69.5724652  10.1113190  45.9708929  63.5774994  69.8594189
  46.1092663  63.7971640  70.7807398  45.0195360  63.5760736  69.7538042
   4.2114625  37.0254300  34.6768154   5.0356397  37.4267457  34.9523319
   3.8235626  37.6625798  34.0769829  59.1977003  44.4988034  14.5270218
  58.2430580  44.4643376  14.5878662  59.4790068  43.5935757  14.6599640
  15.3424677  27.6909564  20.7539524  16.1972794  27.9764483  21.0764946
  15.5330453  27.2565768  19.9225582  61.8854944   9.4467591  27.0320201
  62.6269071   8.9161634  27.3235917  62.2412769  10.3317212  26.9514489
  40.2054882  70.5229616  56.6184807  39.7156048  70.1648951  55.8781910
  39.6310353  70.3901672  57.3725414   5.6743536  37.4291871   1.7950930
   6.5739545  37.1760438   2.0021404   5.5151090  37.0588420   0.9269251
   7.3931162  22.5352525  26.5785193   7.8230803  22.2967671  27.3997903
   7.1396058  21.6984128  26.1890817  84.9377338   4.9882649  56.8966007
  84.0395967   4.9351930  56.5698528  84.9679081   4.3592500  57.6174736
  63.1104271  31.1930322  48.8915634  63.7913482  31.2514257  48.2213640
  62.2972123  31.3836145  48.4240246   1.4950404  42.2693131  19.2305340
   0.8001265  42.9172585  19.3466915   1.1378822  41.4649556  19.6069492
  33.1326804  12.6956723  16.2823166  32.3182044  13.0066512  15.8871521
  33.7928805  12.8214667  15.6007446  68.2122823  45.5200074  14.8686375
  68.4919211  46.3132355  15.3256287  67.9693064  45.8210538  13.9930977
  42.6684746  30.1866267  22.8644718  41.8363270  30.5073283  23.2122006
  42.8966984  29.4496319  23.4310307  53.8999025  55.5097102  15.4337944
  53.4025685  54.7310458  15.1836456  53.2468478  56.2083875  15.4738201
   8.1156413  61.8946074  10.7644142   8.3598749  62.1714042   9.8812546
   7.2673671  61.4649199  10.6547512  66.8288659  22.6569676  45.8023834
  67.1204054  21.7977643  45.4974127  66.4960932  23.0899239  45.0162268
  53.6448948  31.3765721   2.7880444  54.2066257  32.0101319   3.2344689
  53.3594386  31.8276499   1.9935192  47.6946561  58.6069213  33.9785828
  46.9061629  59.1284298  33.8284554  47.3814444  57.8242801  34.4320168
   4.8613173  48.2708931  51.6362381   4.6496892  47.3684263  51.8749905
   5.1106638  48.2223034  50.7133627  72.4767656  77.7411560  62.6594400
  73.2868273  77.9798878  62.2088432  72.1262200  77.0100469  62.1506882
   4.0465319  37.5118375  56.5531921   4.5514885  37.6076698  57.3606968
   3.5085899  38.3024955  56.5118361  17.0409262  43.4513569  50.8410931
  16.9727218  42.5468874  51.1468887  17.3096037  43.9462614  51.6151190
  40.9543275  21.6514802  60.4493856  41.5496826  22.3274541  60.1255941
  41.3703346  20.8263469  60.1997375  16.7316393  58.0578970  19.3788113
  17.2673373  57.6051901  20.0301994  17.3014502  58.7469612  19.0371384
   9.1065979  25.2098560  44.4372606   8.8207006  25.7612753  45.1655674
   9.6860975  24.5629883  44.8397160  32.8580196  70.0957106  29.3539395
  33.4087626  70.1067995  28.5711350  33.3498008  69.5706509  29.9853672
   7.5714272  48.6206055  63.8445330   8.2137871  48.0134296  63.4771824
   6.8894702  48.0562973  64.2088461  82.5595563   8.3626527  62.2709799
  82.7914509   7.4577713  62.0620632  81.6084176   8.3476746  62.3774815
  57.7267186  60.6182931  22.4894489  58.0052177  59.7443782  22.7632012
  58.4134213  60.9119247  21.8907417  84.4433507   9.6356843  48.3707775
  85.1472100  10.2502368  48.5784783  84.7255835   8.8078997  48.7598099
  11.8537927  64.0086079  24.4082594  11.1143649  64.4288635  24.8474240
  11.7172730  63.0722284  24.5524192   1.3579875   4.6447682  47.3851776
   1.7453626   4.2982632  46.5813732   0.4185103   4.6754354  47.2044182
  65.5043861  22.3829768  22.7468170  65.0765958  21.9627068  22.0007576
  66.3266298  22.7211402  22.3921456  23.7179136  41.6917086  47.3098612
  23.4332085  41.7723703  46.3995504  24.6511555  41.4869833  47.2516918
  37.3062162  58.3051716   2.3154892  38.1738423  58.0282377   2.6100506
  37.4757086  59.0486585   1.7369332  11.0535455  19.2109859  63.5344601
  11.4006972  19.6271515  64.3234634  11.7607903  18.6404097  63.2336617
  22.7595472  44.3235254  47.1119165  22.9725099  43.7122822  47.8170776
  22.3407602  45.0622702  47.5536251   7.4829070  59.2467235  14.7285713
   7.9040472  59.6560477  15.4844345   6.8090813  58.6817120  15.1066651
   5.1379141   6.2110160  24.0992607   4.9803195   6.9622252  24.6711697
   5.8311376   5.7175372  24.5376076  60.6508359   7.5631259  16.9592823
  61.5412864   7.3318837  17.2235836  60.0930398   7.1811698  17.6369251
  80.4166562  79.8990021  60.2032137  79.8403914  79.2083908  60.5306387
  81.2957914  79.6173794  60.4562807   8.8221246  16.1556864  30.7607436
   8.6087024  15.3354692  31.2056327   9.3410176  15.8886445  30.0020146
  66.3181018  18.1991386  44.6114826  66.7279624  17.4679065  44.1493702
  67.0271479  18.8293421  44.7392559   8.7874740  40.9578991  13.6387861
   8.3855003  40.3192091  13.0499530   9.7259885  40.7784224  13.5821176
  47.2988176   5.7741040  53.5989428  47.6954031   6.6288197  53.7675142
  47.8090239   5.4120189  52.8745031  50.5979077  60.5778645   9.1936077
  51.1710708  59.8114716   9.1747154  49.7207610  60.2177809   9.3246998
  62.9848186  62.1451639  10.2046456  63.8549844  62.1675967  10.6028237
  62.4868337  61.5374588  10.7513966  14.5273785  52.0402621  19.4105210
  14.1506056  52.8565823  19.0820469  14.0025870  51.3524185  19.0010132
  62.7652885  77.7036623  70.3085804  63.1565333  76.9128586  70.6797791
  61.8473570  77.6655398  70.5772448  54.5396618  69.5200456  70.6916666
  53.9232175  68.9883889  70.1881123  54.5176996  70.3780664  70.2679348
  20.9567904  44.2157125  50.5272102  20.4885650  44.4532108  51.3275814
  21.5799689  44.9298429  50.3934240  16.8651867   5.5490655  61.5429354
  16.1153197   6.0838705  61.2823296  17.6065183   6.1544907  61.5319824
  21.3306378  61.1463259   2.3069300  21.9645928  61.7018436   2.7605070
  21.0773085  61.6528152   1.5352310  85.5701260  46.2143946  49.3686581
  84.8047448  45.6402874  49.3399715  85.8495265  46.2868452  48.4560156
  63.7990331  30.3372264  69.3266726  63.5370087  30.2101302  68.4148502
  64.6554136  30.7614326  69.2728806  34.2485746   6.8489192  41.8686928
  33.4424910   6.4903329  41.4973702  33.9777240   7.2342131  42.7020134
  23.5684013  63.9996338  36.8142796  22.7998114  63.4671211  37.0190549
  23.4119749  64.3134356  35.9236097  86.6775136  38.0069804  60.4148436
  86.0783694  37.3918271  60.8377457  86.3134401  38.1317520  59.5384216
   8.0020171  40.3958082  55.3305197   7.7052724  39.4998574  55.1709938
   7.7721703  40.5651474  56.2441540  65.3275147   2.5758860   2.7146401
  65.8309689   1.7677901   2.8133597  65.8473357   3.2389424   3.1689181
  72.8256964  63.1393242  62.1028662  72.5709950  62.7197409  62.9246378
  73.0210685  64.0441656  62.3464298  14.6257412  48.6927319  50.8984518
  14.3866098  49.2764378  51.6184092  14.6121931  49.2522192  50.1219082
  25.8477235  31.6840577  29.3111372  25.7780814  30.8027554  28.9441419
  26.7123294  31.7050672  29.7213125   7.0449722  27.6197267  58.3631277
   6.7689544  26.7405200  58.6220503   7.8299558  27.4782133  57.8339720
  79.3828964  30.9193563  23.9028192  79.1435402  31.6269040  24.5014143
  78.6016762  30.7849693  23.3662868  56.5454721  44.5982981  64.3662071
  56.9833803  43.7523413  64.2722654  55.9484005  44.4782305  65.1046658
   0.5975667  55.8027554  48.3530045   1.3139683  55.5107307  48.9166737
   0.5987895  55.1829195  47.6235962  83.8256120  26.9490147  11.0830617
  83.8561135  27.1130824  12.0256019  84.1645559  27.7527690  10.6889451
  82.3188886   9.7289202   6.4255394  81.5869268   9.2116950   6.0894741
  81.9136390  10.5301640   6.7572226   9.1060174  13.1433654  64.5199966
   9.1482997  13.1719565  63.5641623   8.6341810  13.9400113  64.7628069
  29.0865350  65.3066730  43.0028439  28.4836173  65.1497889  42.2761345
  29.1372919  66.2601376  43.0703735  15.9567511  68.2803297  60.4722691
  15.7968092  67.4676609  59.9924564  15.8783829  68.0337524  61.3938379
  53.1298220   8.4973548  27.2599854  53.7615171   7.8098128  27.0490803
  52.5837448   8.1178830  27.9484810   9.1438669  23.5749030  24.4758153
   8.4137189  23.2921243  25.0264072   9.2707944  24.4965196  24.7010803
  59.9155402  44.7636795  51.8613148  60.0976824  44.0088177  52.4209976
  59.2428254  45.2547979  52.3330021   1.3524327  18.1937001  18.7466206
   0.9541306  17.3256371  18.8102402   1.0534868  18.5331462  17.9030289
   0.3727779  11.5821479   1.3020481   0.8227501  12.2782824   0.8233465
  -0.3233853  11.2961123   0.7106318  17.3971307  34.3499541  61.2162256
  16.6652882  33.8192582  61.5308666  17.6415026  33.9501119  60.3815746
  18.6235309  42.4330759  58.6709356  18.8761187  41.9415712  59.4525099
  17.7568388  42.7828455  58.8776636   5.7867805  34.6263938   4.2639746
   6.7115442  34.6730428   4.5065941   5.7922260  34.5749693   3.3081736
  86.4100391  38.8921285  55.0616121  87.3379772  38.9020848  55.2962685
  86.4024919  38.9956522  54.1100550  28.1840258  68.7124060  22.1991886
  27.4205716  68.6727403  21.6231789  27.8173740  68.7092517  23.0833782
  24.9787688  32.6204801  48.1971264  24.4751430  33.3999968  48.4315348
  25.4221559  32.8577495  47.3826647  70.0983512  22.2683859  68.8147688
  70.9828722  21.9800448  68.5895681  69.5254087  21.6014957  68.4363174
  86.2380903  12.7160299  29.5693302  86.3291532  13.4603894  30.1641989
  85.3018787  12.6791251  29.3734264  24.9251080  29.9530172  39.8350692
  25.0809503  29.1111064  39.4071317  24.3663716  30.4327226  39.2235732
  16.3556969  40.7012224  66.3941288  16.6191339  40.4955292  65.4971790
  16.1798799  39.8492527  66.7934656  21.4731646  27.2673273  49.9433613
  22.0714426  26.5726590  50.2185631  21.9506860  28.0781364  50.1188421
  79.3068712  29.5195436  38.8903141  78.7223243  28.9090204  39.3395329
  80.0793200  29.5697689  39.4533706  24.5601821  60.0299883  70.0520706
  24.9049973  60.9198523  70.1260853  25.3069663  59.5072746  69.7599840
  71.5400850  61.8698025  55.3719091  71.3967871  61.5349245  56.2570906
  70.8703744  62.5444412  55.2597189   5.5950475  50.0398207  56.4899588
   5.1801330  50.0659704  55.6277561   6.5334719  50.0792074  56.3054609
   0.3935725  16.9755733  33.3112836  -0.5429891  17.1334124  33.4303260
   0.8103783  17.4575329  34.0255809  53.0860422  76.8175445   8.5556805
  53.4533102  77.6562829   8.2766396  53.8252927  76.3497348   8.9441311
  49.6001181  31.6518376   6.6928257  48.8845285  32.2363970   6.4429249
  50.3777274  32.2099946   6.6891874  24.5765480   6.3064168  14.7879662
  24.3226894   5.8445523  13.9889301  25.4314264   6.6856740  14.5840611
  18.1331668   1.7336962   9.7047390  18.5916838   1.9459841   8.8917650
  17.2818312   2.1626971   9.6186127  70.4973706  17.0417617   4.1696705
  71.0010132  17.1476004   3.3625902  69.6540138  16.6924451   3.8816418
  15.7945756  69.3011807  23.7415470  16.4163284  69.6412371  24.3849911
  15.5846540  68.4208654  24.0533318  43.4340239  32.3014569  48.0121565
  42.8120852  32.9989934  47.8051090  43.2231855  31.6014099  47.3943281
  33.6347079  49.6435833  66.5888834  33.9920855  50.3995752  66.1230659
  32.7229977  49.8780870  66.7621660  71.1931333   1.5438340  20.6833519
  71.3656815   0.8900712  21.3608898  71.6318234   2.3348496  20.9965195
  39.2192388  11.3419795  61.2955141  39.5026541  11.2614882  60.3847837
  38.4359527  11.8906629  61.2549973   9.8019207  64.2460728  57.8828239
  10.5840278  63.7227488  57.7076817   9.1252863  63.8587856  57.3274803
  21.1805749  33.5888028  51.8702269  20.9495211  33.1403613  51.0567522
  22.1304131  33.4905410  51.9364405  13.2909346  46.8785334  60.1759195
  12.8366804  46.6873789  59.3553448  13.5221553  47.8051472  60.1114559
   8.6969054  22.0268631  63.5085392   8.1500745  21.2414336  63.5259962
   8.5880297  22.3748827  62.6235199  85.4362141  17.7344418  55.1396513
  85.0723713  17.1022141  54.5198584  86.0229581  17.2178805  55.6920338
  75.8730780  15.1774395  61.0304880  75.1818477  15.2551925  60.3729248
  76.3513326  16.0046875  60.9742165  14.2942941  27.4250293  63.8504648
  14.0594459  26.5228891  64.0677738  15.1185942  27.5759983  64.3130350
  74.2033314  41.7471790  65.2732468  74.5052528  42.0305014  64.4102287
  73.8933205  42.5492382  65.6937551  83.3814608  38.6741376  57.2135067
  83.1162974  37.7993917  57.4976587  83.2040798  38.6844659  56.2729454
  50.8401274  24.2315698  44.6843004  51.1010765  24.4858599  43.7991571
  50.0082254  23.7730360  44.5663261   4.8755762  45.5601549  55.9910583
   5.2896202  45.9277964  55.2102661   5.1501089  46.1385679  56.7026091
  13.5020471  64.3021202  36.0981083  12.6448691  64.7243357  36.0414195
  13.4410298  63.7388325  36.8696141  35.8095336  57.7792168  36.1672401
  35.0321317  57.7380943  35.6102991  36.4844322  57.3160553  35.6710243
  16.7960004  68.4192132   4.0726389  15.8756642  68.2385324   3.8814177
  16.8328373  69.3674086   4.1983427  82.7321401  24.7386050  48.5266733
  82.7003759  24.8652959  47.5784254  83.4653738  25.2814245  48.8164091
  11.4451706  49.4301701  52.4828959  11.8493760  48.8682127  53.1439924
  11.3591623  48.8693476  51.7119789  68.1715092  11.6385577  19.6021141
  68.5982892  11.2945244  18.8174309  67.6022514  10.9275267  19.8964085
  17.6983678  13.8955891  57.8579140  17.2204947  14.7130072  57.7175665
  18.4659934  14.1516674  58.3691931  67.2847783  37.1868515  36.2422109
  68.2392179  37.2087336  36.3114762  67.1015524  37.5025630  35.3573465
  49.6338915  17.3848879  64.6665764  49.7789215  17.6794827  63.7674570
  48.7841510  17.7549791  64.9057531  36.2001411  45.2658989   7.9465260
  36.9921754  44.8278855   7.6349844  36.4232282  46.1967223   7.9408755
  58.4433977  74.2606567   5.1143946  58.4013645  74.2055629   4.1597094
  58.4751074  73.3494209   5.4057278  71.8062007  12.6551425  12.5382221
  71.3419985  13.1423843  11.8575287  71.2947451  12.8074718  13.3328545
  12.0409564  57.5103532   5.9519352  11.2568967  58.0592667   5.9386505
  12.0086472  57.0265673   5.1266255  33.0578877  55.8294474  12.8399052
  33.1631879  56.3197063  12.0245613  32.1244074  55.6205975  12.8749527
  82.8363320  32.8285241  65.9562445  83.1617387  33.1829977  65.1287842
  81.8836480  32.8417373  65.8643198  11.9289549  79.2305658  41.2342501
  11.7521770  79.4953380  42.1369553  12.3079641  78.3549837  41.3113165
   2.8567526   7.6996094  52.4389362   2.9204118   8.1724960  53.2687283
   3.2552662   6.8478262  52.6174927  65.6354164  40.0081539  43.7472105
  64.8566532  40.4497194  44.0859985  65.7413816  39.2425752  44.3119192
   7.2693694  42.3558044  32.0381522   7.8321362  42.9884863  31.5917897
   6.8198597  41.8939638  31.3304234  51.3650652  17.1720336   4.9892201
  51.8853148  17.8054164   5.4835810  50.4592856  17.3654912   5.2308144
   8.1820929  33.6953759  67.5766802   8.7716174  34.4493699  67.5629425
   7.9364347  33.5666943  66.6605330  48.6784510  79.4714187   8.7931313
  48.4111242  79.6033095   7.8835310  49.6287100  79.3645857   8.7504067
  15.7394528  29.8915935  65.8213377  16.0981452  30.0123167  64.9421358
  16.2928724  30.4348159  66.3824701  60.2714960  39.4838394   3.0649866
  60.8513252  40.0767685   2.5870051  60.2847449  39.8096873   3.9649166
  80.5418556  46.5009165  52.7061272  80.6077450  46.2500429  53.6275148
  80.8232092  45.7225657  52.2252560  68.9590664  69.5018638  26.8940163
  69.4843383  68.7041129  26.8314528  68.5362990  69.5779646  26.0386157
  26.0039926  45.5919552  44.4634533  25.1358843  45.2207279  44.3059540
  25.8315110  46.4792681  44.7783566  81.5587937  27.6942873  65.1905775
  82.2200536  27.0134211  65.0665283  81.0205995  27.6523256  64.4001198
  75.9657227  51.2528992  38.4359694  76.6034066  50.5390787  38.4287405
  76.1250495  51.7080307  39.2628336  85.7852116  26.2779593  57.8094578
  86.4968209  25.6852865  58.0515003  85.6871295  26.1611032  56.8644953
  32.3426628  31.0236216  62.2505045  32.0817137  31.7240787  62.8484154
  31.7846704  31.1442852  61.4821815  21.8263183  57.7131342   9.3879093
  21.3575040  56.9522677   9.0450873  22.2311012  58.1120728   8.6176933
  47.3821315  12.4696276  17.3282208  46.6990694  11.7990611  17.3279537
  48.1166181  12.0635293  16.8679489  18.6887205  48.3497810  23.4403777
  19.1274166  47.5636959  23.7657213  18.5456395  48.1764841  22.5099325
  10.0817490  33.7022281  53.9391565  10.6916630  34.3837166  54.2216635
   9.6364444  33.4315133  54.7420549   6.4715558  30.8419943  68.9108849
   6.6634542  31.7346048  68.6233902   5.9443945  30.4706359  68.2034779
  68.7670111  68.1622410  61.4273310  68.7015139  67.4964523  60.7427359
  68.3305835  67.7712488  62.1842241  82.1331828  37.0324826  19.8916149
  81.2760931  37.2333765  19.5157540  82.6560872  36.7317104  19.1484201
  59.1161893  79.0356250  41.6085291  59.7537662  78.3528076  41.8170691
  59.5671373  79.8548518  41.8128443   5.4026645  53.3314848  26.3545465
   5.4383177  53.7375450  25.4884791   5.9776121  52.5693083  26.2855792
   9.2853594  27.3576760  69.1781521   9.6293956  28.2044244  69.4625664
   8.4603524  27.5689101  68.7411451  34.4696317  32.0842861   7.3389782
  34.6427779  31.9289623   6.4104666  34.6602993  33.0136673   7.4659743
  80.6478494  13.7388313  15.4583657  80.7961076  13.2415414  16.2627006
  79.9633693  14.3672919  15.6880534  56.2454401   7.0870707  31.3558067
  56.4443819   6.5514348  30.5878605  55.6987047   7.7964137  31.0179485
  83.0601957  52.5217056  53.4101105  83.7566166  52.3509312  52.7760267
  83.5044467  52.5278091  54.2579556  80.3746569  49.6536255  36.5195155
  80.8529358  49.8687744  37.3202586  81.0513514  49.3678236  35.9058118
  69.6513407  50.0289045   7.7334274  70.1304810  50.2998136   8.5165419
  68.7328879  50.0277524   8.0030121  82.6324674  52.5166035  45.3979206
  82.8298377  53.3077192  45.8993340  81.7278814  52.6358843  45.1085615
  28.7438948  77.9246266  58.9245319  28.8334901  78.8180483  59.2562008
  27.8902156  77.9143144  58.4916830  22.4555540  48.2257366  43.0250168
  22.7495337  48.7330008  43.7816477  21.9507337  47.5048494  43.4014606
  50.4991078  52.7818155  52.4027538  49.8395895  52.0893002  52.4438763
  51.3211965  52.3201466  52.2376347   1.8950373  64.2831039  59.3146849
   1.2119731  63.6713982  59.5894098   2.3889472  63.8066721  58.6473799
   6.7660344  41.5289688  64.9721718   5.9279674  41.9791842  64.8664284
   6.5733701  40.6135130  64.7695541  18.9987111  62.8800726  30.5374956
  19.7117090  62.2928047  30.7884669  18.2247484  62.3176908  30.5068374
  50.0484225   3.3354447   9.2956890  49.2809048   2.8462098   9.5920052
  49.8008683   4.2544005   9.3980183  36.2674308  30.3961587  44.3248272
  36.2908006  30.7260180  45.2230883  37.1592760  30.5212188  44.0004730
  53.1347792  68.0526351  24.3949474  52.6752059  68.4508608  23.6557259
  53.1036250  67.1124528  24.2179646  49.3173149  17.7883837   1.5161957
  48.5961178  18.1779263   1.0218681  48.9111945  17.0777533   2.0124878
   5.6840611  38.1562304  41.7157793   6.0500991  37.8111410  40.9014320
   5.2090734  37.4176764  42.0967770   5.5205971  20.7062483  44.8516607
   5.5374146  19.7645938  44.6806717   4.5975226  20.9046245  45.0091791
  13.0082023  51.3059330  50.1024675  12.3715806  51.3235092  50.8170557
  13.4853613  52.1314621  50.1864338  82.4532397  62.3129333  10.8125961
  82.6003702  61.6904212  11.5246797  82.0950754  61.7824460  10.1008844
  14.4432712  57.4890375  32.4148512  13.5934711  57.6050615  31.9898677
  14.3127143  56.7548037  33.0149221   4.0387642  35.8415318  68.9594650
   4.4143263  36.6355062  69.3399811   3.1654060  36.1048913  68.6694336
  82.0349676  79.2802968  57.5090075  82.5655849  79.4916570  58.2771254
  82.4399526  78.4918157  57.1477365  20.2982829  73.2777976   6.2089934
  19.4677965  73.5556553   5.8225788  20.2040188  73.4687637   7.1422018
   7.1717858  27.8401613  67.3855829   6.6238260  27.0582247  67.3181391
   6.5490741  28.5634542  67.4584341  19.7654724  44.6784115  61.7553377
  20.2188182  45.2477121  62.3771143  20.0535679  43.7950516  61.9853687
  27.4270309  47.5688420   7.9955305  27.9788278  47.7099197   8.7648453
  27.9482824  47.0012699   7.4277319  77.7623104  49.2004585  38.4153533
  78.4502494  49.6752834  38.8817358  77.7038973  48.3585739  38.8670707
  22.2702146  22.0007157  64.3480635  21.8849063  21.1863685  64.0246391
  21.7403698  22.2296715  65.1116562   5.8462232  -0.0616530  28.8639712
   5.9217072  -0.1960119  29.8086834   6.1672622   0.8289058  28.7222981
  26.4575124  42.1409893  20.2972245  25.8756828  41.9585800  19.5593667
  27.3294663  41.9089317  19.9777317  78.9807281  32.3854516   8.6127199
  78.6980804  32.8502295   7.8251089  78.8315519  31.4614794   8.4120955
  37.7893905  11.3513421  50.9421778  37.7727578  12.1963357  50.4928064
  37.9766892  10.7161569  50.2510262   8.7503892  48.3959866  69.5789194
   8.1616980  47.6412773  69.5697069   9.6055949  48.0355453  69.3445396
  63.1781792  57.3275137  56.9885969  63.4826636  56.6758490  57.6201439
  62.2261261  57.2285843  56.9825077  28.1511188  59.3434334  70.3627777
  28.0077076  58.5480595  70.8756590  28.2511759  60.0352764  71.0166645
  58.2004833  37.0209599  70.8569288  57.3976183  36.7523766  70.4102707
  58.1600428  37.9772425  70.8678722  46.6694640  25.6726050  68.3713818
  46.9749736  25.6589842  67.4643469  45.9957551  26.3523865  68.3870173
  41.1487214  79.6870516  13.7938465  42.0135622  79.3335746  13.5856690
  41.2155942  79.9604510  14.7087254  64.6988454   9.3773911   2.5471415
  65.5036583   8.8996003   2.3465885  64.0322509   8.6964295   2.6375641
   8.4828265  76.8033425  42.8186226   9.1783078  76.3295717  43.2747793
   8.4432657  76.3960291  41.9533110  37.5022078  27.7985740  58.4357643
  38.2948732  28.3244729  58.5422707  37.0148706  27.9325509  59.2486525
  30.6789708  31.7536950  43.7781048  29.8024440  32.1321225  43.7093639
  31.0453033  31.8364525  42.8976583  14.5631853  60.2990391  58.2798134
  13.9468589  60.2583494  57.5485693  14.1833833  60.9429409  58.8776205
  19.2505882  70.2388857   2.7761330  19.3284003  69.2859291   2.7308239
  19.7585206  70.4841684   3.5494866  85.0308623   7.0881915  68.9101410
  85.7718267   7.5499421  69.3025589  85.4074722   6.6212374  68.1642532
  68.3848035  40.7050753  33.6496449  68.6391973  40.5207300  34.5538211
  69.1068351  41.2267685  33.2993054  39.0204597  14.9994659  23.5188007
  38.9428902  14.6937943  24.4225597  38.4482622  14.4171572  23.0190635
  34.1161357  79.4388698   2.1974386  33.5745792  78.6660598   2.3577942
  33.8976241  80.0369524   2.9121269   5.3155454  14.7200657  59.6275364
   4.4892033  14.3523623  59.9408744   5.6739290  15.1833130  60.3846322
  81.2429389  22.5065968   5.5086245  81.7096719  21.9392893   6.1222662
  80.4165729  22.0525334   5.3437676  42.4464273  22.6512456  24.6939731
  43.3759022  22.8407860  24.5660090  42.0282078  22.9465222  23.8851857
   9.6456450  23.8514900  48.6754560   9.9852645  23.9332318  47.7842712
   9.4261593  22.9240108  48.7639999  50.9394207   8.7900612   6.9480719
  51.4300826   8.0704615   7.3451342  50.1120224   8.8098357   7.4289622
   4.3694112  18.3232927  23.8124990   4.3317226  18.2847667  22.8568172
   3.7157887  18.9804101  24.0516782  74.2123341  48.3849716  54.9101925
  73.6604964  48.6535883  55.6447363  74.6929240  47.6245022  55.2372313
  47.7164555  27.1758294  55.3356171  47.9250860  26.4210033  55.8860207
  48.2254839  27.0377898  54.5368290  19.9044685  80.2027320   2.0657076
  19.3447803  79.5350336   1.6692700  19.6853868  80.1767133   2.9971327
  26.8376040  33.7147856  57.5248957  26.3722849  34.1049433  58.2648182
  27.7624345  33.8764381  57.7114153  28.0350256  30.7478094  64.9610043
  28.7113094  30.2045250  65.3656149  27.5719786  30.1535988  64.3704700
  72.7417039  15.4214406  39.9463511  71.9760131  15.7408059  39.4689035
  73.0992233  16.1997271  40.3737688  74.7280764  26.1711144  41.5901852
  73.8007831  26.2282896  41.3597727  74.7315072  25.8480811  42.4912214
  54.3334126  33.1355882  19.0689623  54.0556287  32.9812527  18.1660509
  54.5055055  34.0763330  19.1091275  18.1003499  31.2861657  48.1003857
  17.9940796  30.3980398  48.4412289  17.9203057  31.8535304  48.8499928
  34.3139677  39.5318341   9.6174111  35.2599375  39.5536548   9.7619690
  34.1561775  38.6894161   9.1911854  42.1276049  48.1015925   3.2630600
  41.3537113  47.5484775   3.1563629  42.5016407  48.1623118   2.3840584
   8.9684820  52.4519920  59.7312784   8.1713843  52.3811483  59.2060661
   8.8225842  53.2184267  60.2858305  81.4626416   2.0852635   8.4852757
  81.8358883   1.2865660   8.8580956  81.7427834   2.7808926   9.0801300
  12.7964151  48.3656597  33.3964968  12.3590779  47.8066730  34.0387607
  12.9928148  47.7810383  32.6644588  30.4561782  37.6027226  34.3351912
  30.9688878  38.1711721  34.9098420  31.0403585  37.4152541  33.6004663
  43.3206701  12.1398735  66.8627787  43.4351206  13.0880809  66.7992401
  43.6689043  11.9138479  67.7252579  47.0601510  16.5461481  19.8410404
  46.4894819  17.3031807  19.7088587  47.1622419  16.4861131  20.7908845
  37.6789926  75.8280777  13.7683262  37.5254886  74.9109434  13.9953293
  36.8176649  76.1592768  13.5140576  57.4588887  65.3760599  10.3653111
  56.9922463  64.5414971  10.3207745  58.3479301  65.1395558  10.6296982
  36.8568230  38.1593275  55.5340576  36.7752504  38.2861233  54.5888042
  36.1977911  38.7418771  55.9116077  24.4788398  10.9867333  59.1388083
  24.5310990  10.5826615  60.0049639  24.9592043  10.3887605  58.5661745
   7.0583683  28.2534885  43.4485626   7.3255152  28.2381344  44.3675995
   6.2565130  27.7313495  43.4234667  38.9407134  31.4830875  47.3894930
  38.8400388  30.5401182  47.5195026  38.0521798  31.8312931  47.4636030
  35.4422478  42.4942741  17.5775017  34.7604774  42.8810758  18.1268658
  35.1820151  41.5780577  17.4823250  14.5964444  45.2292824  49.6927309
  15.5447161  45.3188467  49.5979118  14.2329681  45.8124208  49.0263462
  24.4090176  26.4818001  21.2556028  24.9017429  25.9760451  21.9018722
  25.0517726  26.6981220  20.5801010  29.8865366  79.1148615  51.2225342
  30.2592230  78.3049011  50.8742476  29.9064231  79.7243309  50.4847145
  65.0933326  80.8862481  56.4953804  65.5219836  80.3337971  55.8417082
  65.7334591  81.5717702  56.6865063  32.9189706  59.8947668  26.1347532
  32.0769310  59.8344564  26.5859318  33.2672977  59.0034866  26.1575603
   6.8739235  44.5398045  57.8974342   7.0124656  43.6791325  58.2927513
   6.9575733  44.3873072  56.9561672  15.8022439  49.0748405  43.1560516
  15.7113147  48.5027027  42.3940659  14.9846566  49.5719814  43.1812096
   3.2140797  47.0790100  65.4071045   3.2442698  46.7537832  66.3068533
   2.3007500  46.9682646  65.1429176   7.1729511  12.2669005  23.1490946
   6.7618483  12.8874588  23.7508702   6.8423802  12.5155449  22.2858834
  57.3997688  61.1105490  48.2634830  57.4812483  61.5168524  47.4006367
  58.2473158  60.6911135  48.4117174  13.6740637  53.8713217  16.8775320
  13.4058058  54.5312643  17.5168645  13.4977520  54.2753649  16.0278893
  61.5204875  11.8669461  39.2652178  61.9090979  12.7108525  39.0349245
  61.7877762  11.2793302  38.5584641   9.9583864  60.6036377  37.4874711
   9.8373532  61.1639261  36.7208815  10.3338444  61.1828709  38.1506109
  26.3795972  30.5329728  13.0125189  26.5726733  31.3094902  13.5378540
  26.1349678  30.8791661  12.1543002   1.8832850  30.9783220  57.0533609
   1.6595887  31.9041824  56.9586277   1.1306471  30.5949354  57.5036764
  36.0436773  36.0337210  53.4748030  35.8917975  35.6810069  52.5980186
  36.8297219  35.5819631  53.7818575  22.9958057  55.4120588  55.5235481
  23.6215997  54.6890497  55.5668116  23.4310579  56.0737133  54.9859619
   9.5166302  36.8960738   7.5746614   9.1713130  37.1292758   8.4364063
  10.0277376  37.6597691   7.3067611  23.5622907  31.4911699  37.9540348
  22.9051518  31.1686206  37.3372984  23.9817309  32.2204351  37.4974489
   3.5829067  25.7398033  66.4334106   3.3660984  24.9594593  65.9232283
   3.8196981  26.3961887  65.7781887  77.4538263  16.5573285  14.2018856
  77.5428542  16.0374425  13.4031166  76.5154287  16.5479157  14.3904366
  21.2728405  40.8372784  44.2755413  20.4706287  40.8639860  44.7970533
  21.0969019  40.1836300  43.5987663  41.0362911  46.1404800  55.6619406
  41.0044479  45.2683687  55.2686930  40.1571321  46.4951515  55.5295658
   4.6073264  17.2035360  45.9904528   4.4633350  16.8488407  45.1131344
   3.7712687  17.6054275  46.2265110  81.8561968  44.3020699  14.0061630
  81.9621285  44.8416684  14.7896446  81.5572127  43.4551785  14.3372502
  19.9188328  37.2917819  58.6727047  20.4539466  37.1484184  59.4533014
  20.5161905  37.6967144  58.0438757  18.2000732  60.7214880  47.8818226
  18.4633565  61.2773180  47.1483612  18.9560020  60.7257891  48.4690046
  81.1089930  21.0256074  12.2773422  81.7730030  20.3934453  12.0022167
  81.5781507  21.6313622  12.8510822  31.6494155  71.1442661  58.2940674
  32.4547696  70.6956577  58.0364180  31.4487147  71.7191792  57.5555372
  33.0731426  79.3357133  15.8137860  33.8425667  79.8901151  15.9436192
  32.3354418  79.9456547  15.8152641  80.3116362   0.2414178  51.5978479
  81.0362522   0.8030080  51.8731308  80.0364201   0.6015634  50.7547665
  67.4772691  27.4044085  60.7167196  67.9588138  28.0349541  60.1812220
  67.8079485  26.5507817  60.4370642  63.2984829  80.8736610  26.0036016
  62.9823160  81.2031269  26.8448663  63.5099840  81.6611195  25.5021834
  17.9886186  17.4291492  65.0548935  17.4091709  17.3209512  64.3007278
  18.0052686  18.3734500  65.2106190  14.7150552  64.2052794  55.5614948
  14.2902362  64.3697453  54.7196436  14.9184644  63.2700348  55.5484676
  36.5770221  28.1909895  60.9159184  36.7491269  27.9037285  61.8126297
  35.7931399  28.7359238  60.9852695  10.6932151  55.8818340  37.6669049
   9.9424839  56.2011147  37.1662116  10.8199549  56.5373802  38.3527827
  61.2680976  77.5419568  15.7394852  60.7969086  77.4395727  14.9126019
  61.5112583  76.6502975  15.9885849   3.9633882  32.8253007  52.4824715
   3.3592126  32.9590058  53.2127619   4.8178470  32.7064347  52.8972054
  83.7134608  25.1637528   8.3163752  83.1265315  24.8911450   7.6110853
  83.7283906  24.4186137   8.9170183  76.8757623  21.2839556  53.1696606
  77.3281568  20.4542089  53.3216238  76.7250120  21.3049912  52.2246408
  22.4592948  64.3227243  67.2844696  22.0480227  63.4662151  67.1683693
  22.0835280  64.8648500  66.5908289  49.1417488  22.2839091  43.7871327
  48.6226442  22.2598097  42.9832806  48.5952928  21.8440650  44.4384064
  35.3523350  35.8720994  56.3266706  35.9676361  36.4256096  55.8457708
  34.9986005  35.2768946  55.6657314  48.4339659  70.9203647  13.2274498
  48.6599557  70.8621811  14.1557659  49.2649071  70.7914470  12.7701248
   4.2843944  71.8357325  43.5171747   4.0630415  70.9261751  43.3173227
   4.9583071  71.7750216  44.1942167  12.8766489  68.6656904  36.0298872
  13.4567654  69.2007732  35.4882407  12.2385824  69.2859697  36.3825321
   6.0528886  74.1226339  56.2408113   6.8426228  74.4618034  55.8194828
   6.1114693  74.4328308  57.1444559  21.9128108  26.0764503  33.6737084
  22.6799250  26.6218185  33.4995222  22.2751474  25.2344513  33.9493561
  47.3634132   2.2783730  19.5185341  47.4487361   3.0866549  20.0241341
  47.8422245   2.4512456  18.7079300  19.2854762  43.4679747  69.1055441
  19.2040443  43.2403421  68.1793785  18.5881341  42.9733229  69.5359707
  12.2919345  72.0024538  48.3930111  11.4906156  72.3185587  48.8103771
  12.6514983  72.7717972  47.9513597  64.3837598  58.2567380   2.2942223
  64.0055832  59.1284058   2.1784081  64.8921945  58.1083844   1.4969029
   4.1505113  63.6386156  47.6793909   4.4004464  62.8683281  48.1897020
   4.6108013  64.3645811  48.1005096  65.0628304  49.7794485  11.0191035
  64.5108294  50.1086855  10.3097844  64.7412896  50.2284288  11.8009365
  20.1481152  53.3714342  55.4562187  19.8928773  54.2753649  55.2718544
  20.9733677  53.4484863  55.9350252  13.3685653  64.6326994   6.6156401
  13.6779158  65.5167411   6.8131365  12.9719595  64.7060798   5.7475628
  84.8219959   0.0930833  28.3145356  85.5802456  -0.2440310  27.8374171
  84.2223803   0.3920030  27.6309133  50.1000023  18.8282406  70.2033949
  49.4819403  18.4408045  70.8231735  49.6520901  19.6073508  69.8738527
  21.6421127  69.4898033  58.8376474  20.8492422  69.1307306  58.4393358
  22.1617937  69.8023129  58.0970383  84.2159064  81.3327976  39.5069385
  84.0659649  80.4169425  39.2725039  84.1723759  81.8033275  38.6745095
  12.2411513  44.4582891  32.5923562  12.2806764  45.2063894  33.1881881
  12.3442793  43.6943913  33.1598568  20.7307148  58.5345030  48.1914902
  21.3898277  59.0878105  47.7723742  19.9091434  58.7740231  47.7626753
  28.5697150  36.6312337  46.7895174  28.8671470  36.7096138  47.6959515
  28.3783197  35.6997871  46.6799355  80.2867183  16.4485619  28.4483399
  80.2847609  16.9401333  29.2696728  80.0396069  17.0915959  27.7837624
  21.3602901  18.4702468  36.7776561  20.5400491  18.9515078  36.6689038
  21.2444854  17.6779747  36.2531304   1.3502413  28.9251399  64.7276878
   1.9735147  29.2405176  64.0732431   0.6235141  29.5466781  64.6854115
  31.3672543  69.2931890  44.5635891  31.9320250  70.0640440  44.5083046
  31.2499428  69.0165520  43.6547756  13.3785784  39.3962884  63.0040884
  13.4485507  38.9154553  62.1793842  13.8961875  40.1891422  62.8637362
  20.2395654  15.9223044  65.0847149  19.5108128  16.5255380  64.9389029
  20.5987763  16.1813271  65.9333086  26.4574409  79.7003508  54.7636938
  27.3828244  79.8378468  54.5612288  26.0533547  80.5579567  54.6315336
   2.2828816  53.3180141  21.5917158   2.0826572  52.8943014  20.7570839
   2.8722134  52.7076674  22.0348763  22.5166202  56.6925669  21.7246127
  22.3478127  57.2418785  20.9591103  22.8032446  57.3060751  22.4011374
  24.2487216  58.8791704  42.8480005  24.0581346  58.8959742  41.9101143
  25.2037096  58.8371801  42.8976297  29.4976211  46.9977379  42.6496267
  28.9866233  46.2414646  42.3612452  30.3302050  46.6268396  42.9419851
  79.1418295  68.5300064  54.5062065  79.4780593  67.6338530  54.4964838
  78.9779460  68.7343359  53.5855436  23.0472159  38.4360147  37.0771384
  23.2525492  37.6002121  37.4960732  22.6188278  38.1935883  36.2561965
   6.6424006  42.2436333  28.4413624   7.3998606  42.1961498  27.8580689
   6.4940429  43.1810904  28.5654378  19.9608493  55.1254797  44.0835571
  19.1131806  55.4253626  43.7552881  20.5425978  55.1750755  43.3250475
  28.5270676   0.9510253   7.5772537  28.6668095   1.8669341   7.3368038
  28.4912547   0.4866431   6.7410149  16.8901885  74.7559452  46.5974140
  16.7878377  74.8872948  45.6548071  16.0747647  74.3356037  46.8705988
  32.4749279  78.4003210  26.6512585  32.2875738  79.3304491  26.7777491
  31.7707443  78.0893612  26.0823488   5.0842243  29.4279099  40.7195377
   4.2033488  29.5536041  41.0723686   4.9487177  29.2828226  39.7831511
  71.0505637  25.8997033  12.4713577  71.2425205  25.8104727  13.4048618
  71.4703402  25.1404879  12.0668759  29.3997746  79.4639777   5.4544319
  29.4029900  79.2714284   6.3920559  29.9228967  78.7637018   5.0643171
  54.7888106  39.4159863  16.3627972  55.3383991  39.5787881  17.1293987
  53.9808619  39.0483973  16.7210259  73.8022160  54.5556164  45.0771856
  73.4143054  55.3665590  44.7483587  73.9690196  54.0342855  44.2919350
  84.7306057  32.7801847  50.3966856  84.0767806  32.1486092  50.0969219
  85.2522578  32.2984767  51.0386086  63.4138417  23.1060147  30.9370065
  63.6355280  24.0183067  30.7504416  63.3542227  22.6930308  30.0755405
  84.6623340  62.4404573  62.6040649  84.0093895  63.1168842  62.4242258
  85.2852693  62.8605175  63.1971359  39.8151772  77.3435281  16.9177689
  40.3380589  78.1369613  17.0330490  40.4557542  76.6619967  16.7142834
  82.5328478  35.8662818   8.4235205  82.3144897  35.8165095   7.4928917
  83.0040177  35.0526021   8.6028351  45.0135755  78.8383913  61.6201925
  45.5980920  79.5416164  61.9031239  44.6500301  79.1482878  60.7907152
  11.0325849  37.9719377  54.1391087  11.5525734  38.0550003  53.3397722
  10.5788660  38.8110733  54.2179680  34.0637493  54.2947435  40.1345587
  33.5335755  53.6361790  40.5833721  34.8692179  54.3451929  40.6492472
  25.0308887  10.9553765  40.6752634  25.8823977  11.3321923  40.4535103
  25.2344967  10.2446508  41.2832499   1.2840234  36.2472534  68.6466312
   1.0998163  37.0945287  69.0521240   0.4708571  35.7522058  68.7462378
  27.1838427  56.1653042  30.4792023  26.5054107  56.5684319  29.9374938
  27.2500277  56.7363882  31.2445211  21.6756463  57.8284454  50.6122208
  22.0745015  56.9750357  50.4423857  21.1923242  58.0306149  49.8111200
  83.5188096  49.6321058  42.8998232  82.6637649  49.8435163  42.5250769
  83.9410060  50.4816198  43.0275393   3.4203893  59.5878839  68.6314869
   4.0861988  60.2173519  68.3545399   3.8795894  58.7483549  68.6551142
  53.8276314  24.7567628   0.0322975  53.7943488  25.5253050   0.6019129
  53.5470667  24.0320799   0.5911793  76.2470054  26.2951565  11.6070998
  76.2668347  25.4660821  12.0850921  75.4388749  26.7189813  11.8961155
  86.6177211  48.0108404  65.9635353  86.2864462  48.0808353  65.0682211
  86.9145305  48.8950062  66.1789036   1.6138631  17.6680958  51.2730742
   1.7833917  18.0461216  52.1359682   0.6629505  17.7145195  51.1738682
   7.0931458  46.0280418  43.5526466   7.8679949  46.2742138  44.0578556
   6.8548644  45.1629257  43.8858557  17.0149207  66.0121775  54.3345261
  17.7652311  65.6895781  54.8337173  16.3017917  65.4153633  54.5614386
  19.0068769  51.6489172  57.7354574  18.8465178  51.8766356  58.6512423
  18.8851154  52.4704361  57.2595167  65.5311560  50.4871893  48.9627790
  65.3659629  49.8046732  49.6132469  66.2127494  50.1210356  48.3992243
  56.7057769  18.1164693  22.8652096  56.5754048  17.8357266  23.7709808
  55.9939949  17.6988839  22.3802161   4.2944708  32.3681355  55.4523277
   5.1545584  32.7603602  55.3018570   4.4669342  31.4285278  55.5125189
  47.1086168  38.3934569   7.4714959  47.7883911  38.4312510   6.7986572
  47.5439692  38.0048609   8.2302415   2.8873059  73.5353804  54.6335316
   2.6767835  73.6706734  55.5574417   3.8419083  73.4680367  54.6127701
  40.6849174  74.6073221   2.0317187  40.8704893  74.5093750   2.9656328
  41.5476505  74.6514963   1.6194405  64.6971797  49.5912600  62.1719408
  65.1054954  49.0733385  61.4782047  65.3990769  49.7379637  62.8060150
  27.3433161  52.7014542  48.4727478  27.5084233  53.6283350  48.6455536
  28.2148600  52.3124695  48.3997345  76.4247381  13.5022724  66.5578318
  77.0185249  13.7485337  67.2670603  76.9236266  12.8747725  66.0347748
  79.5452889  20.4297421   5.7381787  79.1191277  20.8913968   5.0160374
  80.2390965  19.9197171   5.3201641  17.9939055  49.5133734  53.7409210
  17.7184820  49.5025778  54.6575785  17.5134695  48.7901688  53.3379459
  16.5342569  39.3504333  32.6584005  15.7294571  38.9356804  32.3477387
  17.1056533  38.6190557  32.8925490  64.8505690   6.1336920   0.6686367
  65.6431368   6.4021418   1.1333956  64.1365954   6.3481162   1.2690462
  70.3999125  79.2745972  52.0483017  70.9662675  79.9860287  51.7494106
  69.9139058  79.0109730  51.2669373   1.1038493  78.8665771  54.6080971
   2.0389096  79.0596199  54.5400715   0.8951211  79.0149927  55.5303955
  38.0899906  76.2000227  47.3142815  38.3070254  77.1310949  47.3614883
  37.8962636  76.0458279  46.3896608  67.3679050  40.1639435   7.2909130
  66.4619085  40.1535199   6.9822182  67.4507543  39.3687699   7.8172888
  16.2793002  21.4148305  12.2249951  16.8388114  22.1711180  12.4016442
  16.4179835  21.2258599  11.2969460  41.2892151  70.0127792  53.0152941
  41.0656929  70.9169722  52.7946043  42.1630669  69.8851299  52.6460791
  12.7814543  21.6049743  52.8583431  13.6252379  21.3663459  53.2421684
  12.9820430  21.8040037  51.9438028  80.7164630  39.9139664   7.6342358
  81.1804470  40.5858491   8.1337513  80.3795918  39.3120072   8.2978596
  36.2051670  57.4650203  17.5845493  36.2692229  56.5338241  17.3724045
  35.4770993  57.5201284  18.2035031  19.6033466  58.2975340  39.8801541
  19.5257533  59.2479801  39.7972989  20.1958680  58.1692648  40.6208944
  19.4994175  60.6296968  56.4031219  18.7672901  61.2341261  56.2811089
  19.2653573  60.1239920  57.1813917  29.1696978  49.3559170  22.5954175
  28.3534098  48.8935566  22.7855110  29.8050284  48.9808226  23.2052469
  66.6949847  11.0956023   0.3273644  66.5619412  11.7335866   1.0284390
  67.0199272  10.3136180   0.7736220  85.0961693  25.2667618  70.7233238
  85.9698679  24.8914194  70.6137753  85.0733668  26.0029197  70.1119423
  34.0336084  52.2369862  69.0392733  33.1163239  51.9794893  69.1315556
  34.0018868  53.1774139  68.8637161  26.2652211  31.8220692  26.5979351
  26.2926690  32.0815645  27.5188793  27.0870150  31.3519471  26.4569630
  57.7405111  57.3544668  25.5833496  56.8799536  57.4501823  25.9914078
  58.3180325  57.0934318  26.3006748   8.9871037  32.1630311  52.1173620
   8.4287012  32.7898717  51.6574860   9.5077837  32.6996040  52.7150345
  76.1579882  54.1871738  49.6426630  76.2881815  53.3789968  50.1387787
  75.5168270  54.6812153  50.1536083  79.2130690  53.6495352  58.4973955
  79.3111610  53.8356876  57.5636053  78.7006562  52.8416204  58.5280228
   0.1982529  60.8628368  43.9769602   0.4970711  59.9705029  44.1521120
  -0.6358314  60.7509279  43.5208797  64.7499125   7.2766160  58.8463783
  65.0882499   6.7752408  59.5882559  64.8747437   8.1914853  59.0987062
  45.2958345  70.1386309  42.3840427  45.9168291  70.0267649  41.6642618
  44.4357538  70.0381422  41.9761324   9.3876207  60.2118778  49.1230297
  10.1995659  60.1390171  49.6246958   9.6752447  60.3494692  48.2204914
  22.2492290  41.1924171  17.6698685  22.2046447  42.1441031  17.5774348
  22.5442934  41.0527372  18.5696781  86.9338395  43.9887667  62.0522118
  86.3360917  43.3788586  61.6198397  86.6168168  44.8554707  61.7981482
  25.3135349  25.1091432  56.7087317  25.5184708  24.8167752  57.5968504
  24.6839230  24.4654512  56.3839626  68.4834730  54.6715784  46.9322920
  68.7588715  54.7281456  46.0173130  68.5272264  53.7378311  47.1382952
  47.1331386   1.2734937  61.5349722  47.1208624   0.8816766  60.6617308
  46.5041248   1.9931649  61.4834404  67.6527753  30.1125548  15.4922833
  67.7448091  30.9965727  15.1369347  68.3103141  29.5970318  15.0252690
  82.8722530  61.4595175  41.4829874  82.7087911  60.7349062  40.8792973
  82.2471603  62.1353531  41.2208033  66.7163100  21.7729542   3.2989277
  67.1602508  22.5962803   3.5021032  65.8060994  22.0240615   3.1417908
  14.0319800  35.8142900  62.9432154  13.9474583  35.4587317  63.8279009
  14.4937766  36.6443014  63.0617762   2.2111805  70.8615780  59.2994738
   2.9599646  71.4497375  59.2013741   2.4088788  70.3510571  60.0846577
  77.8187772   1.6752312  13.2124962  77.3421701   1.7568133  12.3864044
  77.4072405   2.3173783  13.7908711  32.0401669  60.6641150  42.8913260
  32.9667926  60.7788134  43.1021452  31.6802192  61.5509748  42.9034472
  18.4918654  27.7980018  40.3529692  18.9547372  27.9721498  41.1725140
  18.4881032  28.6393762  39.8965621  14.1635442  41.6257143  51.5140009
  15.0461209  41.3098049  51.7076254  13.9589643  41.2540007  50.6559753
  62.0186138  41.5966511  50.7917166  62.3253202  41.2269783  49.9637651
  61.2157297  42.0645857  50.5622673  68.7565791  54.7202826  62.3430014
  68.1479000  54.4420147  63.0273342  68.5245776  55.6332207  62.1728563
  20.9823418  60.0696802  44.0005207  21.4342308  59.3876457  44.4973707
  20.2820611  59.6067762  43.5405684  44.6869270   6.9623517  53.5274601
  44.3007426   6.8749665  54.3989277  45.5283658   6.5106343  53.5919619
   2.8990796  50.7343817  48.7011909   3.1345838  50.9238386  47.7929640
   2.5113967  51.5482950  49.0228748  46.1723423  50.7811642  68.1970119
  45.7626486  50.0049257  68.5788870  45.6040525  51.0154819  67.4632692
  41.7517654  58.1684648   0.3991284  40.9262101  58.3423065  -0.0530563
  42.2478835  58.9825533   0.3133454   0.3062400  19.6502946  16.4176335
  -0.2945795  20.3845284  16.5447106   1.1778793  20.0428078  16.4667381
  75.7165074  32.7113676  33.4258151  75.1657652  32.9972816  32.6970029
  75.1145481  32.2617674  34.0188861  35.3196613  75.8058475   1.5287079
  36.0513095  76.4210700   1.5779270  35.3909711  75.4181741   0.6564392
  38.0250208  68.5324930   2.7903189  38.0054556  67.9947136   1.9987120
  37.8208373  67.9226469   3.4992804  18.5853052  41.2859154  56.0911322
  19.2171717  40.5669069  56.0895967  18.3595812  41.4044380  57.0137596
   1.2788057  29.5807099  49.8243141   1.3015352  29.0489697  50.6199074
   1.7701927  30.3705430  50.0500011   2.3752213  64.1606855  45.7408857
   1.5983506  64.4380236  46.2264633   3.0352300  64.0014696  46.4156246
   8.2886982  60.3397179  54.7008181   8.5498166  59.5385504  55.1548910
   7.7261126  60.0382280  53.9874935  13.6733949  58.1367493  35.8066797
  14.4111693  57.6474428  35.4426742  12.9014933  57.7462673  35.3968930
  31.4242268  40.3661633  65.1770115  30.4825783  40.2017832  65.2270603
  31.5018725  41.3201189  65.1902819  37.9502271  77.4381374  24.9973644
  38.1559317  78.3638595  24.8671498  38.5797404  77.1431516  25.6553425
  47.2755003  31.8671560  66.5038776  46.6088676  31.2003422  66.3389921
  47.5722408  32.1297669  65.6325483  25.8957195  58.3912373  68.5922432
  26.5815306  58.8720465  68.1288671  25.0900912  58.6140156  68.1258059
  82.7126833  33.2679987  55.6971025  83.6431228  33.0734968  55.5844831
  82.3564991  32.4921536  56.1300325  27.6654929  64.6475051  18.0253090
  28.5131389  64.2066668  17.9670872  27.8205982  65.3884386  18.6111321
  24.4980979  33.9197516   4.4594675  24.4316006  33.0191946   4.7769707
  24.1651988  34.4533205   5.1810712  42.4737358  40.9356117  49.9949265
  43.2751083  40.4428720  49.8181772  42.6103878  41.7783785  49.5621490
   8.3447760  64.8060369  34.6047473   7.4018824  64.7121620  34.7402883
   8.5498762  64.1823959  33.9081573  33.6858344  65.0990438  29.5297003
  33.4563971  64.1748476  29.4324875  34.5749879  65.1630402  29.1810679
  12.2492075  51.1586380  56.1908197  12.6171553  52.0418262  56.1621523
  12.8014159  50.6497335  55.5972576  16.3426590  32.4394107  54.8024702
  17.2143960  32.1338773  55.0533819  16.2184525  32.1057200  53.9139557
  72.1994030  35.2434635  44.3873119  73.1299304  35.0277758  44.3254232
  72.0482146  35.3860188  45.3216839  17.9876101  58.8516188  70.5579090
  17.5932670  58.8020420  71.4286947  17.7524602  58.0227137  70.1409483
   1.7412508  16.8092048  25.8410501   2.6340503  16.4812553  25.7333922
   1.2851933  16.1119974  26.3123727  83.9610061   8.7236188  10.9451832
  84.7637972   9.2441867  10.9174503  83.6952623   8.7420056  11.8645729
  86.1651687  54.4365501  34.4448066  85.7731588  55.2922869  34.2708039
  87.0190163  54.4721127  34.0136313  37.8298855  17.9146397  13.6717534
  37.7474141  17.8740430  12.7189779  38.5393834  18.5387826  13.8243687
  13.6872017  60.3408384  47.7290010  14.0531313  60.0676680  46.8877506
  12.9372978  60.8887768  47.4974060   0.6015963  79.1782856  34.7342372
  -0.1517876  79.6186495  35.1275849   0.2204980  78.5785151  34.0929341
  11.6605067  61.7246914  25.5096269  10.7767022  61.3618994  25.4504395
  12.0952487  61.1892557  26.1733603  66.6455316  71.4741516  62.8630877
  66.8646442  71.2689447  61.9541788  65.7115697  71.2771130  62.9346609
  83.6944913  79.5086718  60.1785660  83.7093004  80.3138161  59.6611214
  84.6173620  79.2893028  60.3067064   8.2455641  27.9645872  36.7024326
   7.5033820  27.9317093  37.3060179   8.8913715  28.5140038  37.1466231
   4.7782192  18.4699462   1.1067166   5.1093039  17.8702614   0.4381432
   4.6596942  19.3005250   0.6459345  25.2492762  27.9353929  59.7715712
  25.9093666  27.5203347  59.2163801  25.5868602  28.8176155  59.9263334
  25.6507874  11.2908649  54.3995953  25.7363868  10.6102085  53.7320518
  24.7528625  11.2015653  54.7189522   4.7838902  54.2056179  65.9922600
   5.1517975  54.8992157  66.5397978   5.3141534  53.4346437  66.1938858
   9.1975889   8.2545636  14.7823013   9.1737232   7.3197005  14.9865021
   9.1761455   8.2914660  13.8260521  54.6719837  23.2065032  27.3661102
  55.5848994  23.1729624  27.6519264  54.3507582  24.0484784  27.6887955
  41.2211637  24.8420381  31.8190455  40.8619933  25.7233762  31.9213963
  41.9024233  24.9368524  31.1533666  69.4854900  75.0088570   2.3172154
  69.2418751  74.5762131   3.1355681  69.1585514  75.9034131   2.4126734
  58.7661480  16.1085627  13.0691399  59.2504930  16.9089387  13.2717194
  57.8818123  16.4099667  12.8609623  54.0119783  24.3953942  47.6794147
  53.9347474  25.3469132  47.6094723  54.6307795  24.1540097  46.9901752
   6.4313114  51.0297012  50.0704145   5.9381342  50.4533339  49.4866276
   5.8144295  51.7255783  50.2972269  51.1633651   1.2582349  59.9154329
  51.9253151   1.6202210  60.3677893  51.3595740   0.3258084  59.8242807
   8.2721037  77.1197319  57.4182510   8.4888685  78.0520439  57.4244881
   8.9935851  76.7092657  56.9415808  31.9668317  71.7671156  41.2938738
  32.2253299  71.9668341  40.3941393  31.5392423  72.5657272  41.6031027
  15.8461213  57.8403091  57.9628611  15.7639241  58.7432003  58.2698870
  14.9435604  57.5328684  57.8786230  27.6054120  69.2987204  48.3366442
  27.9454184  69.7830343  49.0890169  26.8015099  68.8904476  48.6580276
  36.1988841  38.6579084  68.3011818  36.0277937  38.8455533  67.3782778
  35.6903533  39.3143415  68.7773323  17.2465174   9.8922013  61.3305378
  16.4890627  10.4441499  61.1359978  17.9605071  10.2776860  60.8227444
  42.8667974  65.4578066  35.8451152  43.7467623  65.6223869  35.5062819
  42.5313377  64.7433949  35.3035307  28.6121988  69.9749804  40.7962370
  28.3316088  70.6232309  41.4421988  28.7601018  70.4812813  39.9974751
  76.8136739  66.6935253  66.7286634  77.4943494  67.2766161  67.0647001
  77.2165340  66.2654066  65.9732533  25.1457930  81.8910789  65.6130886
  24.8595858  80.9778118  65.5966854  24.4566345  82.3664188  65.1490402
  42.9239210  12.3025487  10.7394280  43.7204334  12.0839236  11.2231697
  42.5276646  13.0155871  11.2402119  57.5881910  78.1511116  29.1780376
  57.4757385  78.5761070  30.0283098  58.1041718  78.7734938  28.6655569
  76.5501057  78.7472868  68.8400459  76.6439509  77.9055643  68.3940315
  77.1179544  79.3423700  68.3505011  16.9654879  32.9363701   1.2950958
  16.3728318  32.2739623   1.6503538  17.6668963  32.4331401   0.8815588
  76.4936229  44.2879937  21.6842522  76.8961903  43.4196065  21.6924633
  77.2332403  44.8951123  21.7089905  85.6080970  42.7115891   1.3093199
  86.0441812  43.5627053   1.2685312  85.4700598  42.5577519   2.2439398
  71.3299819  36.2999365   4.6615614  72.0269546  35.7223389   4.3503679
  71.6570183  37.1832631   4.4912113  48.8288450  65.6592989  42.4326277
  48.9451313  66.2094641  43.2072449  48.2838678  66.1837673  41.8459702
  35.9769106  68.6833811  57.5516844  35.2385664  68.3925772  58.0869532
  36.2990165  69.4686127  57.9942894  21.7606434  54.5111344   5.4249634
  21.4223370  55.0054333   4.6783365  22.1015629  53.7026856   5.0423254
  15.6788573  65.3014920  22.8700604  15.4097209  66.0217259  22.2999157
  15.6726775  65.6776307  23.7502350  17.1782541  49.5721960  37.5636172
  16.2934411  49.8991156  37.4009514  17.3100936  49.6954727  38.5036445
   3.1497567  15.7822179  36.9536805   4.0398066  15.6660890  36.6211843
   2.9049008  14.9197434  37.2889614  46.3764334  59.5013475  47.1558714
  45.5457926  59.7878790  47.5355577  47.0398521  59.8005104  47.7776527
   0.7461448  55.2381277  44.4561672   0.2313800  54.8051882  43.7751293
   0.4435302  54.8420334  45.2733374   2.2224793  32.6522133   3.0350508
   2.6824412  33.4880374   3.1129469   1.6932115  32.7430270   2.2426762
   3.0961880  40.8828328  10.1646008   3.5545215  41.0795376  10.9815849
   2.4409160  41.5759919  10.0847019  41.1963511  74.9109411  38.1871367
  41.0716438  74.2493343  38.8675451  41.0848427  75.7459259  38.6416674
  74.7448456  77.3655224  52.2712088  75.4275464  78.0341864  52.2160721
  74.7823333  76.9148207  51.4275932  49.2833567  54.8271227  67.1204472
  49.0102196  54.6344662  66.2235022  50.2314091  54.6952200  67.1156836
  44.3656938  16.9739961  67.1087885  43.9493172  17.8354787  67.1352100
  45.2714066  17.1375512  67.3717785  29.7255158  33.6480546  57.2906637
  29.6861315  34.3676424  57.9206419  30.1861477  32.9487300  57.7543402
   5.6231409  41.6313124  55.1353884   6.2295789  41.2992430  55.7973528
   4.8041952  41.7728186  55.6102943  40.1902120   3.4253167  55.8495617
  40.8570580   3.7884091  56.4324093  40.6876902   3.0242204  55.1369095
  71.4913933  21.8282460  33.3131409  72.0721142  22.1836900  33.9859390
  71.0441296  21.0995244  33.7434196  70.2618110  42.2679043  58.4038258
  69.3335020  42.0797777  58.2656860  70.7154929  41.7150116  57.7676535
  62.2956936   6.3094758  58.3999825  63.2238380   6.5010213  58.5344791
  62.2574393   5.3567075  58.3162880   8.0273161  18.0293725   8.5816683
   8.5494361  18.8239119   8.6927141   7.3045168  18.2952473   8.0132450
  42.6298031  17.7059958   8.8686957  42.0060095  18.4063456   8.6773314
  42.3293910  16.9666503   8.3401550  33.5857281  56.3945172  10.1989044
  33.6098942  57.3473141  10.2873482  32.9607901  56.2354157   9.4915356
  39.9909453  10.2510404  52.8735304  39.7005932   9.8935651  53.7126637
  39.2113404  10.6701230  52.5090933  41.8785286  69.4240427  29.0682817
  42.5834274  68.8170338  29.2938685  41.7792511  69.9749851  29.8447084
   2.3467357  49.4284725  34.2910504   3.2706511  49.2131424  34.4185090
   2.0559365  48.8353777  33.5982990  17.7345526  43.0553102  28.8797212
  17.4652803  42.7971840  29.7612500  17.6319456  42.2608948  28.3556890
  85.3123888  17.2997782   2.0314469  86.0118374  17.8178618   2.4296822
  85.1808986  16.5697501   2.6364340  18.4312677  70.2942371  30.7349062
  18.6756575  69.6471405  31.3965487  18.3041549  69.7832203  29.9355721
  50.5138922  48.7957764  49.6780348  49.9029255  49.5234776  49.5622778
  49.9598789  48.0544901  49.9225616  22.7746424  24.7748969  13.8345112
  23.3599648  24.8566458  14.5874752  23.2144341  24.1520999  13.2557739
  20.8689547  67.9274416  61.3190269  20.7459998  68.5556459  60.6073570
  21.5845609  68.2923079  61.8396091  65.5950212  60.7308817  37.6413012
  66.2510777  60.1723576  38.0582833  66.0948277  61.4705324  37.2958446
  55.4311514  56.8544197  27.5667405  55.1553297  56.8853855  28.4828162
  55.0096226  57.6135397  27.1638966  64.0574899  27.7759431  11.0470356
  63.5079828  27.1068308  10.6389107  64.3549707  28.3193419  10.3173317
  29.4224215  52.0653391  30.5029750  29.2652726  52.8438282  29.9686646
  30.2805614  52.2161055  30.8993316  76.0292872  28.0406211   0.7865538
  76.7899856  27.5021670   1.0048117  76.3103327  28.5573599   0.0314202
  26.9215322  65.4527235  21.9857931  27.0915437  66.0066462  21.2238908
  26.3597918  64.7529602  21.6526055  43.9726257  62.9086113  48.1604671
  44.5687532  63.1927395  48.8533831  44.3525028  63.2641125  47.3570156
  24.9343181  59.7840214  60.1725435  25.0065732  60.6116343  60.6480122
  23.9966154  59.6827269  60.0091839  28.3812475  77.7356386  38.7117195
  27.7525377  77.0990992  38.3714700  27.9166961  78.5719299  38.6793780
  32.7241421  43.5536957  31.3989663  33.4155941  43.8386202  31.9964147
  32.3543930  44.3669701  31.0553050   5.6852207  21.9869969  22.0647206
   6.5350995  22.4125168  21.9512810   5.7330379  21.2058041  21.5136494
  34.6834517  81.4679813  35.2258897  34.7523522  82.0344257  35.9944129
  34.3488407  80.6391716  35.5684495  80.8736568  50.8454847  32.7787948
  81.1176287  51.3505411  32.0031500  81.3679671  50.0297213  32.6986718
  56.6724634  80.3518867  25.9114766  56.4802265  80.3967953  24.9748564
  57.1457720  79.5269394  26.0195518  70.3352642  56.6487885  48.3679390
  69.7027922  55.9718561  48.1271648  69.8067951  57.3382425  48.7699413
  24.3489313  69.3415594  60.1593733  24.3775082  69.9574423  60.8915615
  23.5810065  69.6067142  59.6531963  77.2615790  55.7187319  59.4273806
  78.1566828  55.9655380  59.1947699  77.3204940  54.7909212  59.6552610
   3.5077223  38.5104487   8.6608185   4.4443831  38.3903906   8.5043396
   3.4471879  39.3473122   9.1214956  79.8656830  42.8000996  27.3552479
  80.7503947  43.0294583  27.0707955  79.4574675  42.4140523  26.5802826
  67.6917180  35.0463936   7.3471512  66.7809841  34.8380730   7.5554670
  67.8358194  35.9080622   7.7382912  79.2583172  14.8685311  60.9991503
  80.0116770  15.3271340  60.6271839  78.8641111  14.4129132  60.2553463
  59.0536572  27.1194098   0.2778496  59.2466724  26.5738890   1.0403361
  59.5780398  27.9092906   0.4095472  68.4715955   1.7246961  61.0634899
  68.2037036   2.5833749  61.3908052  68.6017601   1.1977719  61.8519306
  60.7868725  34.4934724  16.9023480  60.2431503  33.9994261  17.5159516
  61.6588440  34.4882224  17.2971501  75.7483332  24.4854783  57.3666668
  75.9130375  23.5442971  57.3094606  74.8151628  24.5534848  57.5686693
  82.2457735  17.1306275  66.4782429  81.6272203  17.6674890  65.9828568
  81.6933577  16.5474080  66.9987488  49.0772629  68.6226225  17.0426428
  49.9131966  68.9320946  17.3914623  49.0986300  67.6748657  17.1750438
  30.2353883  63.4250402  64.2962980  30.9999919  62.9000425  64.5329237
  30.1779032  63.3487368  63.3438778   2.5945115  61.5543175  62.7672482
   2.9760155  61.3923311  61.9044352   2.1897021  60.7216787  63.0102921
  62.6198101  68.7567139  24.4897985  62.3967648  69.2180347  25.2982926
  61.8693256  68.9051485  23.9144945  22.3446751  54.4795132  39.6303725
  22.5479960  55.4113388  39.5491982  21.5200663  54.3721104  39.1563296
  50.5103580   5.8343648  38.2848549  51.1566464   6.5291356  38.4106803
  49.6705739   6.2502431  38.4798861  14.9704266  50.1974344  32.8551388
  14.8518348  50.8769894  32.1915317  14.1411173  49.7194624  32.8593588
  46.3308832  58.0453560   1.8450369  46.2455675  57.7453110   2.7499832
  45.6657323  57.5517247   1.3653149  84.8406647  66.3943005  21.0510421
  84.4284519  65.8683920  20.3656721  84.9036632  67.2719431  20.6742120
  69.3521759  49.3459866  12.3901524  69.9767193  50.0383446  12.1737541
  68.7625309  49.3113301  11.6369213   5.8167183  76.8918037  37.7967238
   5.9386778  75.9424400  37.8049660   5.0942189  77.0457602  38.4054303
  57.7454215  31.9005988   5.4044785  57.1294454  31.4404938   5.9746565
  58.6045553  31.5636752   5.6586517  31.9869280  73.5331678  70.8050966
  31.2254667  74.1080284  70.8821774  31.8657541  73.0861759  69.9673939
  39.8389563  62.1608327   0.0483336  40.2796325  62.9993413   0.1859774
  40.5376383  61.5097020   0.1124205  73.9012615   0.0939702   5.2725482
  74.0403788   1.0407876   5.2929974  74.1630404  -0.1675654   4.3897668
   7.8749284   9.3708346  22.2017826   8.0776748   8.6800740  22.8326286
   7.4386320  10.0474808  22.7194943   5.1983637  56.7739153  26.3614798
   4.9922577  56.3706636  25.5181885   4.3469739  56.9044638  26.7790031
   0.9518489  51.6681645  31.1242356   1.2383041  52.0489380  30.2940621
   0.1270256  52.1127770  31.3197197  59.8806517   2.5400781  31.7822981
  59.4420950   2.3011636  32.5988889  59.9418513   3.4948014  31.8137360
  64.9405336  74.9295568  65.6045818  64.4168234  75.6861591  65.8682299
  65.7655334  75.3048611  65.2967596  32.6283193  39.5194030  26.2063503
  32.3931384  39.6900725  25.2943230  33.5836124  39.4593310  26.2001443
  34.9711180  79.1584635  54.3747807  35.7695627  78.6418819  54.2658663
  35.0152254  79.8166752  53.6812067  28.6457276  80.1536751  65.7583284
  29.0404820  79.4061232  66.2072945  28.2798934  79.7844362  64.9545527
  13.1579661  63.0947065  62.1478367  13.8739884  63.3898640  61.5853214
  12.8571558  62.2801304  61.7450857  10.9909499  45.4610538  62.1368217
  10.7784712  44.5308971  62.2135735  11.7071950  45.4915810  61.5025568
  64.5759098  33.6805009  66.7462873  65.2226393  33.1338357  67.1925259
  63.7346689  33.3967065  67.1040678  62.5926932   7.3435376   2.1689810
  62.7561438   7.3696730   3.1117596  61.6516128   7.1858142   2.0933355
  29.2767382  78.1372643  61.6553688  30.0611854  78.1267452  61.1069536
  28.6676860  77.5455618  61.2135839  79.5159739  73.5302973  48.4817553
  79.8533701  73.6626482  49.3676901  79.5823293  72.5861692  48.3387518
  83.1129893   3.0023406  12.3136009  82.1986326   2.7892754  12.5001206
  83.6150440   2.4410746  12.9044975  75.8997485  20.5581353   5.1104082
  76.1926838  20.1433108   5.9217896  74.9973973  20.2583335   5.0003542
   3.1356162  81.0103226  46.7073584   2.6514399  81.3704205  47.4504185
   4.0404069  80.9555817  47.0149088  29.1733679  38.1667922   7.0949330
  28.7845168  37.3256419   6.8551602  30.0369248  38.1578181   6.6821207
   0.5056964  73.9740372  27.9693365   1.2009721  74.5522404  28.2831907
   0.2520062  74.3420410  27.1229053  38.8319397  63.8855124  49.7168875
  39.5979643  63.3630228  49.9544621  39.1955447  64.6758652  49.3176794
  33.9372667  25.5093119   0.6465639  33.2612189  26.0133479   1.0994925
  33.9408645  25.8597157  -0.2441870  12.7924728  67.6335716  61.8089581
  13.5523522  68.1905270  61.9781113  13.0001640  67.1880245  60.9876251
  34.0810394  71.0381651  17.1466029  33.9072824  70.7986832  16.2362790
  34.3894076  71.9432068  17.1014988  21.0226498  75.9152816  12.9767193
  21.9599889  76.0677384  12.8567852  20.7511513  76.5792941  13.6104454
  25.8455110  49.1677237  34.1690087  26.1803198  48.6022997  34.8650169
  26.1219645  50.0484800  34.4221425  10.0685954  78.6966276  64.0598488
  10.6153095  79.4822693  64.0497351   9.5574182  78.7501383  63.2523441
  33.7888479  71.7808056  48.3799171  33.6000800  72.6788855  48.1077909
  32.9278493  71.3883400  48.5244226  75.3113119  10.9752702  36.6593099
  75.5779068  10.6582593  35.7963705  74.4658176  11.3979196  36.5085125
  84.9833592   2.8701184  16.6735138  85.6559357   3.1805871  17.2797169
  84.2369374   2.6559279  17.2331680  17.6524758  44.6371365  22.2582340
  18.3032048  44.9972391  21.6556478  16.9176650  44.3893337  21.6970921
  56.6758291   7.8567552  40.2642107  57.6292889   7.7897595  40.2126837
  56.3561217   7.2218656  39.6231747  10.7397294  54.5519924  68.6167955
  10.1252568  55.1590490  69.0292692  10.2529228  54.1819620  67.8803635
  13.6028910  70.1453638  52.9517841  14.3941629  70.4350948  52.4977160
  13.4430444  70.8218908  53.6098051   9.3653119  27.0830274  56.9613791
   9.6444619  26.4478302  57.6207972  10.1653147  27.2973418  56.4814854
  50.8425943   2.4819993  53.8317537  50.9680764   2.7581262  52.9238749
  51.7180697   2.2359037  54.1304302  24.5197749  65.5197573  54.8655748
  24.5543528  65.5874443  55.8197498  24.2947984  66.4022303  54.5708561
  15.5428362  60.2303648  33.9423466  15.2925360  60.3558493  34.8576808
  14.7850645  59.8028660  33.5432720  13.1904542  55.0625515  46.2269831
  13.7352836  55.5870104  46.8137884  13.7404180  54.3144846  45.9942532
  32.2907710  78.8637733  60.4877901  32.6032495  78.2288074  59.8432732
  32.7876234  79.6600580  60.2999020  86.5341955  54.5875740  22.8140807
  85.6945909  54.2071247  22.5561047  87.1884515  53.9786482  22.4714637
  12.4004126  69.9684095  43.4745359  11.5940714  69.4716263  43.6132812
  12.9705048  69.3697929  42.9919577  16.9258690  67.4955606  48.8585281
  15.9914076  67.5571203  48.6604786  17.2054827  68.4030628  48.9788961
  42.3011415  14.6003484  70.8168793  43.0011467  14.6898507  70.1701832
  42.0212166  13.6880445  70.7421255  69.6623938   9.3683671  43.0532122
  69.3456833   9.1745042  43.9354515  70.3574984   8.7278699  42.9021406
  25.0589118  56.3305829  18.5909046  24.9445853  55.5315087  18.0764736
  25.2953467  56.0208199  19.4651856  23.9592767  70.8054972  62.3455048
  23.3925295  71.4345455  61.8990421  23.4303212  70.4820681  63.0747700
  17.7661049  52.4364805  54.3736506  17.7810395  51.5042591  54.1569328
  18.6139750  52.5999641  54.7867155  82.9159252   4.0879010  45.7953358
  82.1743338   4.2339562  45.2080202  82.6296703   3.3785104  46.3707161
  76.8761381  66.5772793  19.4317211  75.9295651  66.7195294  19.4315304
  77.0660433  66.2304280  20.3034271  40.7856226  76.2005424  59.1763878
  41.0746622  75.8334970  58.3409405  39.8928785  76.5026808  59.0091991
  58.1857793  69.7851823  18.4042992  57.7480976  70.2487706  17.6903309
  57.9774348  68.8630389  18.2543720  65.6713430  13.4718083  26.9822860
  66.0859696  13.0534791  26.2277579  64.8045413  13.7283849  26.6675544
  40.3003041   2.2473096  34.2702413  40.6634812   2.6361989  33.4745646
  40.0664620   2.9967164  34.8179126  80.4539490  60.5327272  45.4771471
  80.6341648  59.5940685  45.5288458  80.3599453  60.8091307  46.3887405
  66.0263245  19.8257398  61.0186815  66.8208711  19.5719861  60.5490637
  65.4472343  20.1722669  60.3398561  31.9816141   4.2863034  63.7540960
  32.9263063   4.4397401  63.7698030  31.7684264   4.0133523  64.6464396
  61.5915277  22.9064629   4.3752398  60.9661644  22.9960606   3.6561264
  61.5866372  21.9718430   4.5818533  54.5747709  71.0420084   9.2026484
  53.8163853  70.4700661   9.3208355  54.2000771  71.8918610   8.9711583
  48.9554834  61.8236303  61.5361500  49.7525263  62.2766304  61.2609243
  48.9283276  61.0355997  60.9934664  85.6673082  19.0673278   8.4986462
  84.8084339  18.9798997   8.0852141  86.2892827  18.8270352   7.8118862
   2.5341976  56.0898399  39.8783445   3.1254041  55.4659796  39.4570327
   3.0381596  56.9021893  39.9268031  81.8829774  28.6758327  45.6110144
  82.7407854  28.3538651  45.8880234  81.2604367  28.2085729  46.1680984
  16.5697193  53.7604046  42.3002005  15.9235275  53.6464119  42.9971027
  17.2419190  53.1051493  42.4873400  77.7493578  58.9430141  64.0398359
  77.8793459  58.6487675  63.1383085  76.8461149  58.7000608  64.2432022
  34.7480599   3.1688451  58.4799051  34.1573153   3.6889314  59.0246630
  34.7943674   2.3199414  58.9197254  85.9257484  38.3748841  57.8059673
  86.3883590  38.8433933  57.1111870  85.0304931  38.2851315  57.4793291
  61.8190901   8.7962579  46.2447596  62.0044391   9.3699884  46.9882059
  60.9759395   9.1021871  45.9104967  40.9769487  80.9615898  38.0913162
  40.1591587  81.1158085  37.6183748  41.0349274  80.0090122  38.1651902
  26.5994668  74.8881674  54.0676975  27.4146557  75.3737926  54.1936684
  26.1131072  75.4001236  53.4214878   3.1623483  69.3553352  61.2879372
   2.6433548  68.5557985  61.3752365   3.2502702  69.6827412  62.1830940
  84.8130591  26.2100054  67.4062340  85.3317554  26.4090086  66.6267566
  85.1900895  25.3975274  67.7438156  24.2075491  68.0850649  65.9184647
  24.3761492  69.0145874  66.0727262  24.5047402  67.6517344  66.7185497
  76.3058972  79.6807289  46.9806910  76.8419879  79.4010830  47.7227402
  75.8511841  80.4622746  47.2947741  60.5925274  59.7361135  29.0029001
  60.3325605  60.4050064  29.6363282  60.0252819  58.9897490  29.1963100
  53.7132565   2.4426507  60.3201771  53.9378826   3.2819699  59.9185467
  54.5299284   2.1414994  60.7184076  21.8953443  73.3749866  43.4862804
  22.4299669  74.0946436  43.8216972  22.3634505  72.5840378  43.7536812
  58.7225406   2.1935700  56.8945599  58.6427562   2.6279115  57.7438021
  57.8522937   1.8313645  56.7280960  70.1005765  34.9379227  12.8686108
  69.4823727  35.6327794  13.0949463  70.8419379  35.3963874  12.4731030
  33.9836812  64.4265652  69.5095539  33.2039523  64.2407322  68.9863729
  34.6062660  64.8015928  68.8866758  84.6946576  57.0008707  55.2559280
  85.2725718  57.6431847  54.8440123  84.1386079  56.6869354  54.5428467
  24.6785116  57.3782015  62.0824242  24.5747256  58.2084370  61.6174889
  25.4588795  57.5021648  62.6226950  56.4999294  47.1013641   5.2305663
  57.0898294  46.6900826   5.8623117  56.4683055  48.0205870   5.4956263
  34.2896771  78.0839252  69.0699291  34.7120166  78.1594706  68.2142687
  33.6296344  78.7771511  69.0732813  61.7000024   7.4769639  64.7923088
  61.6450064   6.5757703  64.4743967  62.4024765   7.4592065  65.4422665
  72.3788445  29.7881650  22.1105862  71.6409103  29.1785001  22.1107388
  72.3620979  30.1842641  21.2393451  46.6128922  63.9806223  40.6630754
  47.3327017  63.5407019  40.2107763  46.6135454  64.8690701  40.3068638
  55.2758646  70.2849293  42.3551798  55.4152727  69.7214842  43.1163168
  56.0116482  70.0898886  41.7748260  49.5372979  14.6293210  63.8090611
  49.5669000  14.0553807  64.5745373  49.3135707  15.4898976  64.1634560
  19.5025098  81.3815022  54.3921947  19.1232789  81.7800236  53.6088705
  18.9124393  81.6378403  55.1009560  39.0564156  78.6107254  48.1230593
  39.7805142  78.3882809  48.7082338  39.3875241  79.3399000  47.5987434
  78.5590116  19.0836858  52.9610872  79.3722050  19.3267297  52.5185108
  78.7788860  18.2884740  53.4464025  27.8421346  24.3348741  37.1801996
  28.3966228  24.4399404  37.9533315  27.6118280  25.2288865  36.9273448
  57.9226844   5.9543275  33.2674408  57.2651498   6.2051438  32.6186156
  57.6190893   5.1105641  33.6022902  67.5989811  17.6340341  35.6918335
  68.4364287  17.2182511  35.4867959  66.9806640  16.9065045  35.7598329
  61.0477591  51.2167454  44.9676609  61.5213108  51.9711542  45.3181553
  60.1987505  51.5695381  44.7012854  44.4237852  55.0556993  34.0683770
  44.1732168  55.8346272  33.5716724  44.0747118  54.3242884  33.5590458
  38.2940245  71.6937256  37.8137159  39.0248752  71.0912085  37.6756358
  37.6078367  71.3764429  37.2265959  74.1056236  63.7025330  10.0072254
  74.9888047  63.7388871  10.3745140  73.5363981  63.5686085  10.7650341
  16.6199431  34.7065041  50.3057446  16.1410126  34.7691128  49.4793476
  16.9306979  33.8016102  50.3345074  71.1310379  11.5227078  40.0674248
  71.3058226  11.2798356  39.1581964  70.3136436  11.0734223  40.2824545
   7.5195521  80.9945488  47.7955818   7.1243340  80.1252556  47.7295160
   7.5443059  81.3155365  46.8941450  74.3287810  34.6003840  10.6886353
  75.0697538  34.4425509  11.2736859  74.4706508  35.4867242  10.3562035
   9.6664691  71.6454220  70.0751400  10.4575920  72.1151352  69.8110914
   9.5494074  70.9757137  69.4013309  86.0040084  48.4933424  37.1787715
  85.6062078  47.6562071  37.4179292  85.7848729  48.6071348  36.2539673
   0.5646691  25.5829356   4.0304627  -0.1776662  25.8869193   4.5527329
   1.3269648  25.7269261   4.5911802  65.9056425  70.6052160  68.0140018
  66.4808702  69.8410845  68.0520296  65.4803705  70.5425453  67.1587563
  81.4146702  17.7277135  50.8032513  81.4063637  16.8273305  51.1280298
  81.1580317  17.6531648  49.8841143  49.5947790  62.0781898  20.7550287
  50.5229235  61.8704653  20.6472015  49.2895508  62.2774982  19.8699617
  63.1238572  14.1675710  53.3551741  63.4645359  14.0874051  54.2460966
  63.8997690  14.3151807  52.8144264  68.7185423  54.3157624  27.4751878
  69.6471159  54.5461511  27.5051761  68.3702843  54.8200082  26.7398715
  49.2635695  32.3054074  58.2049561  48.4619622  32.7806996  58.4234905
  49.9537389  32.7689599  58.6793232  53.3342361  81.4231873  47.9511738
  52.5177574  80.9289742  48.0242682  53.0593681  82.3030186  47.6931381
  25.9919398  20.7235669  61.0481262  25.2660983  20.9141397  60.4539394
  25.5905001  20.6998776  61.9167566  31.3514684   4.4985627  34.9107718
  31.8415980   3.9353417  35.5097604  31.0241495   5.2083730  35.4632807
  16.8516874  63.1909943  18.9970839  16.0140347  62.7499104  18.8556015
  17.3739910  62.5600004  19.4923425  36.7786536  21.4365313  28.7628044
  37.6788888  21.2094329  28.9956822  36.7080674  21.2142298  27.8344502
   8.9722054   7.2918366  27.4980903   9.7650092   7.2339963  28.0313349
   9.1478245   6.7266892  26.7457604  13.2936752  70.3227186  24.4848442
  13.2687664  70.3733301  23.5293078  14.1466022  69.9355984  24.6820354
  25.5333543  76.8669796  38.4920168  25.5678844  77.3243952  37.6518941
  24.6027279  76.8454933  38.7149596  16.4307861   1.4516591  42.1708345
  17.1391038   1.0435056  41.6729116  15.6965177   1.4869832  41.5577841
   2.2485039  62.5301027  14.5557022   1.6582593  63.2146978  14.8706269
   2.2010431  62.5931311  13.6017585  52.6473713  77.4130583  26.1325741
  53.1086063  78.2286978  26.3280988  52.0041752  77.3270178  26.8362236
  26.6736676   4.8163053   1.5967955  26.1516930   5.3308698   2.2124209
  26.4493658   5.1719972   0.7369103  14.6408162  26.3483689   5.6962980
  14.9093852  25.4306815   5.6520857  13.9560303  26.3655732   6.3648810
  82.2919743  26.2745713  68.7386513  83.1364672  26.3025807  68.2889032
  81.6764490  25.9665727  68.0734491  13.6433880  16.7574739  59.4574070
  13.4209817  15.9156083  59.0598774  12.9913657  17.3660993  59.1100073
  58.7139742  10.9361600  38.3902788  58.0273263  11.1915921  39.0063143
  59.5314662  11.1256551  38.8507462   2.9895753  76.9132948  58.2159710
   3.3758706  76.9428921  57.3406792   2.2993211  76.2533283  58.1509447
  21.0505581  69.0903521  66.0135365  20.4303098  69.8024702  65.8573055
  21.9099331  69.4835997  65.8616829  73.4716932  23.7759351  34.9518585
  73.4458153  24.6108674  35.4192424  73.8541214  23.9896154  34.1007900
  49.9321699  57.5799704  68.2365799  49.5809889  56.7582273  67.8935957
  50.8473730  57.3840904  68.4372377  47.3891338  49.6606038  15.0109352
  46.6133985  49.4888566  14.4771160  48.0646762  49.0917752  14.6417393
  74.1703701  80.0683308  52.0755291  75.0259686  79.8855639  51.6872168
  73.8046455  79.2046356  52.2666121  84.2155441  27.2099612   1.0561337
  83.5896501  27.9195426   0.9112801  85.0010094  27.6468918   1.3853230
  27.1826935  71.6854239  54.0021515  26.7769599  71.0609341  53.4007931
  26.4660215  72.2609997  54.2692089  80.5726537  77.1506760  35.7979263
  80.8929738  76.5650723  36.4839996  79.9081835  76.6386292  35.3369297
   4.9305615  27.6896832   6.7519678   4.6587047  27.3045418   7.5850310
   5.6511817  28.2758544   6.9829287  59.1798131  18.9197110  51.3419199
  59.4361822  18.0716657  51.7042971  58.2343547  18.9650868  51.4843321
  76.2563324  62.0972967  49.7392321  75.2993727  62.1088076  49.7572184
  76.4862108  62.5547409  48.9304495  43.8987112  68.8042450  69.0199614
  44.4364882  69.3949652  69.5472956  43.7831116  68.0298471  69.5705795
  15.6725098   9.5354578   1.7924656  15.2636232   9.3134710   2.6289858
  16.3353826   8.8572809   1.6624369  65.2562189  80.5885601  39.7462773
  65.7549620  80.0711441  40.3785515  65.2869940  81.4813805  40.0900269
  45.5414621   3.7914037  58.2938194  44.9868898   3.1307172  58.7087536
  46.2069110   3.9929914  58.9516687  76.8507004  77.5066090  64.4690752
  75.8989954  77.4403191  64.5471382  77.0118666  78.4315157  64.2825174
  74.3213932   3.5622167  29.0864420  75.1739113   3.9477967  29.2883515
  74.3049185   2.7440404  29.5829916  13.4355538  21.9348668  49.9522734
  14.2369597  21.9006013  50.4745865  13.6697142  21.5116262  49.1262817
   8.8951761  69.7713375   1.9387762   9.7539467  69.3878126   1.7608607
   8.5486656  69.9940443   1.0747372  59.5173979  81.0077286  65.8180380
  58.8929176  81.7000198  66.0347795  59.0022612  80.2016258  65.8508348
  45.5023114  30.5507802  64.1389275  45.6987624  30.5924462  63.2030296
  45.0668303  31.3816117  64.3294716  75.6810113  57.2430298   4.5654501
  75.9061822  56.5817902   3.9110150  75.2085003  57.9150555   4.0741743
  20.5121741  38.0754397   6.3819708  21.4508948  37.9749177   6.2240853
  20.3085026  37.4146006   7.0438208   5.9096234  34.4268464  12.6820159
   5.4399912  34.4425534  13.5159421   6.4584248  33.6441278  12.7308953
  81.8215029  37.6444387  64.3753958  81.6644327  38.0600595  65.2232265
  81.7378609  38.3560132  63.7406588  47.7261353  75.6045294  53.8425064
  48.3983326  76.1689234  53.4606123  48.2038498  74.8296976  54.1385746
  26.9291728  19.1895246  50.5256224  26.4623492  19.1972016  49.6900034
  27.5855296  19.8809194  50.4396582  46.2419462  66.8214512  46.8262482
  45.7035923  67.3800325  46.2655401  45.6793118  66.6190910  47.5737286
  81.3447937  26.5092013   3.3594526  81.4032468  25.5720732   3.1734289
  81.3389381  26.9246504   2.4971260  18.8378844  26.1733124   4.7724880
  19.7338233  26.4848111   4.9009146  18.3812508  26.4189789   5.5770744
  65.1001374  16.5585279  58.5040140  64.1996138  16.3120793  58.7150908
  65.0215237  17.4133538  58.0805492  55.3008787   4.2573117  25.1503229
  55.4278914   4.6226167  24.2747331  55.9241955   3.5325955  25.2002192
  71.5334360  11.9890164  56.2073517  71.1151211  11.9597100  55.3468943
  72.3577349  11.5170240  56.0891294  58.9835787  65.0632763  48.8088608
  59.1065979  65.9680653  49.0960169  59.8602629  64.7691917  48.5615301
  37.6077017  60.3596947   0.3059591  38.3102927  60.9316228  -0.0030695
  37.0386872  60.9344742   0.8179058  61.4353172   8.8322114  35.1194763
  60.7466332   8.5596513  34.5131230  61.0177509   8.8127660  35.9805751
  31.4157939  76.7131424  50.7817364  32.2819948  76.8601942  51.1616039
  31.1724401  75.8344889  51.0732555  58.3259487  72.6543236  33.4882402
  58.0370092  71.7520094  33.6245441  57.5395536  73.1163502  33.1978106
  81.5601866   5.8434724  35.7498217  81.3039200   6.0638093  36.6453719
  80.7490389   5.9082746  35.2457643  86.8663510  28.7692521  14.0441479
  86.0952982  28.9829991  14.5695271  87.0089921  29.5448229  13.5015835
  67.5728957   8.2054853  22.3486423  66.9491260   7.6647233  22.8331256
  68.4319155   7.8877591  22.6267838  45.4329634  74.9207401  69.4841671
  45.3423452  74.4245577  70.2976894  44.7382784  74.5829058  68.9189196
  77.7817099  31.2667607  31.3579297  76.8652336  30.9937715  31.3157701
  78.1556503  30.7418870  32.0656776   1.6060767  34.1853831  48.8712563
   0.9809527  34.8587868  49.1395439   2.1585092  34.6173260  48.2197441
  49.6006903  44.9993489   5.3259768  49.3743453  44.5459340   6.1380257
  50.5576644  45.0197861   5.3218044  77.2619001  25.8064412  55.4704905
  76.7110865  25.4689359  56.1768341  78.1344597  25.4627084  55.6621075
   6.7537016  65.5475187   4.3874204   6.0215116  66.1321831   4.5831254
   7.4366277  66.1248875   4.0461174  18.7546813  68.3834028  28.6070013
  18.0394006  67.7478790  28.6337805  19.3022740  68.0970287  27.8760004
  34.2947611  58.8661168   5.7233156  33.8221392  58.1992505   6.2214674
  33.7729153  59.6611283   5.8322586  31.0838175  78.8974094  63.8078594
  30.5189300  78.7808132  63.0439615  31.4490271  78.0277252  63.9706564
  16.8616757  64.6013234  16.5187802  16.3826069  65.3855775  16.7864861
  17.2913918  64.2984364  17.3186745   6.2901721  15.0454638  12.9370274
   6.6444335  15.6877444  12.3220410   5.4657039  15.4292367  13.2356896
  79.2031654  45.4128525  21.8759598  80.0009116  45.0963090  22.2997917
  79.3383106  46.3561032  21.7851319  12.1807179  42.9616616  10.9488167
  12.0995364  42.8508256  11.8961109  12.5978932  42.1543477  10.6480850
  48.7369804  14.5410394  24.8973989  48.1522827  14.1773652  24.2324901
  48.2830016  14.3866872  25.7258368  46.5341703   4.3429326  65.1454735
  45.6603114   4.4937467  65.5058289  47.0662634   4.0974378  65.9023333
  71.3895885   8.5208749  68.6899614  72.1204178   7.9033803  68.7184811
  71.7270367   9.3110131  69.1119099  54.0880761  15.2670405  -0.0880752
  53.3305058  15.7371590   0.2602257  54.7919068  15.4531119   0.5333962
   4.3251714  70.5087445   0.4318585   3.7606439  71.2815735   0.4485001
   5.0214324  70.7339833  -0.1851688   9.1104400  74.7817087  68.2253265
   9.7840285  75.4227543  68.4524202   9.3102562  74.0208960  68.7707329
  80.6163630  46.5577576  25.9563984  79.8271402  46.3591836  26.4603104
  80.4890331  46.1040566  25.1232208  84.1114990  18.4397744  41.6655540
  84.8401587  17.8490018  41.4750767  83.3365862  17.9728650  41.3529158
  35.5471167   8.7689326  23.2288899  35.9533248   8.1968758  22.5777496
  36.2737689   9.0565703  23.7815918  64.0630913  76.8256569  52.0937872
  64.0097761  76.1109638  51.4592743  63.1629562  76.9445038  52.3968744
  27.5319419  11.2607978  26.3539948  27.2448334  12.1331475  26.6238274
  27.6005730  11.3154147  25.4008164  36.4313172  23.8861703  56.4353418
  36.3273833  22.9803227  56.1440134  35.5756311  24.2867898  56.2819099
  52.8731173   4.1982815  14.5300068  53.0522391   3.5121987  13.8870110
  53.7386420   4.5019934  14.8036064  30.2047814   5.5319928  54.2162132
  30.9855260   5.3936528  54.7524309  30.5287957   5.5267381  53.3155346
  43.8023696  80.2257226  30.4617180  43.9206824  80.1690838  29.5135464
  42.9069123  79.9217103  30.6099285  65.5930164  19.5743296   4.2987742
  65.1180854  20.1488993   4.8992218  66.1945930  20.1569722   3.8352408
  65.3541803  61.1607027  65.3493929  65.3145123  60.2922726  65.7499981
  64.7152996  61.1254787  64.6374798   0.7727711  17.3924684  67.5053549
   0.9536736  16.8140363  66.7644644  -0.1600845  17.5933599  67.4301815
  31.4297490   3.5181665  57.9213810  31.9890906   3.5005807  58.6979532
  31.5381701   2.6520871  57.5284576  70.4463502  65.2557728   4.0865101
  69.7924360  64.6849606   4.4899954  70.8939883  64.6960900   3.4519924
  58.6773674   9.3329953  60.6910419  59.4282119   9.2097425  60.1102877
  58.4830038   8.4556340  61.0207176  46.5997267  75.7390594  38.1304717
  45.7876825  75.6818390  38.6340070  47.1770144  75.0898695  38.5323763
  30.2502617  69.4692872   8.5792078  30.6886849  68.9435933   9.2482819
  30.1212248  68.8661549   7.8472199   0.0731096  34.7867940   2.8359617
   0.1375851  34.7174475   1.8834557  -0.1092186  33.8940785   3.1293024
  49.3337059  79.9329567  48.9785099  49.3470478  80.8899879  48.9904833
  50.0143051  79.6761322  49.6006489  58.0924273  81.2434387  38.4747052
  57.4849749  81.7802906  37.9657650  58.8946199  81.7639732  38.5167813
   9.9613843  34.7146771   9.7572960  10.2109871  34.0350936   9.1311134
   9.3730054  35.2882836   9.2663540  57.7562801  26.9607209  26.8763447
  58.2817428  26.5923261  27.5865602  57.4380772  26.1980294  26.3933516
  75.9581423  78.7767887  11.8719876  76.8921661  78.9307547  11.7301095
  75.9267092  78.1154013  12.5632226  84.1800976  75.1221848  51.1991978
  84.8904991  75.5303907  50.7042933  83.6890984  75.8581114  51.5646601
  27.2134949  13.1782648  28.3740009  26.8348862  13.3817503  29.2292656
  28.1446578  13.0436250  28.5501827  17.1842560  37.0373271  15.2815117
  17.5507674  37.7482770  14.7557224  16.9526658  36.3623974  14.6434940
  84.7789916  40.3373883   0.2640595  85.2822503  41.1337350   0.4337706
  84.3901333  40.1149724   1.1099590  85.9396895  63.0438016  24.8134674
  85.4224786  63.1919072  25.6051697  86.7875346  62.7373192  25.1351132
  27.1939311  14.5758841   5.3073944  26.7093501  13.9327738   5.8249106
  26.5185675  15.0542805   4.8265042  55.6049156  56.5441036  48.6975384
  55.1288271  57.2709656  49.0990925  56.5276861  56.7786837  48.7960386
  34.8853397  80.4548740  63.1328440  34.2812228  81.1964321  63.1698990
  34.3407512  79.7155666  62.8625107  63.9078712  66.0059309  53.1394005
  63.2468987  65.6429338  52.5498343  63.6457729  65.7028580  54.0087032
  31.5573812  81.4250469  64.5788527  32.3839998  81.2707996  65.0361681
  31.2023568  80.5497074  64.4240093  26.0457787  63.7805245  38.2981743
  25.2652821  63.9180730  37.7613987  26.7593369  64.1593907  37.7848305
  27.7148223  76.7162752  65.5712080  27.1871114  77.3033333  66.1126137
  28.0837417  77.2825241  64.8933506  49.5727587  76.9883490  67.2670794
  49.2567253  77.2072744  66.3904762  48.7980986  77.0572376  67.8250980
  71.0574619   8.6884927  47.6105213  71.0306541   8.0216550  48.2967043
  71.9828217   8.9231156  47.5405693  44.6075205   2.2952508  54.5321512
  44.7329263   3.0853509  55.0577497  45.1157717   2.4536084  53.7366438
  57.4499337  30.2956342  40.0654936  56.7785995  29.6636914  39.8082137
  56.9585316  31.0758542  40.3224182  76.4393894   8.2264184  54.7043371
  75.7715551   7.8572320  55.2822018  77.1443502   7.5789308  54.7086525
   0.1569447  17.8126404  14.0704216   0.2091226  18.5130236  14.7207798
   0.6329021  17.0824597  14.4660629  58.3550095  51.3410924  18.9160217
  59.0312987  51.0832760  18.2896103  57.7075258  50.6374524  18.8725723
  43.6866951  71.6579437  50.1831627  43.8883400  72.3410511  50.8226442
  43.0743647  72.0722389  49.5751762  64.7624747   3.6016416  49.0334177
  64.8184983   3.0794477  49.8336697  65.5637447   3.3915757  48.5537624
  46.1703572   0.0621054  23.1417431  45.3212914   0.1957247  23.5630001
  45.9551510  -0.2482345  22.2621884  39.8908496  76.9261742  44.7619629
  39.0756798  76.4794159  44.5336151  40.5782938  76.2975550  44.5417595
   2.1661625  33.7505839  33.6547722   1.9570908  33.8526938  34.5832695
   2.0514688  32.8155968  33.4848560  63.3515827  10.2208470  68.4563017
  62.7437989   9.8930406  69.1191483  62.8469173  10.8729505  67.9701853
  13.9156151  79.4088364  39.2339087  13.3396053  79.3756247  39.9976754
  13.3372831  79.6421099  38.5077214  79.4661340  17.8463671   8.3442177
  79.0410027  18.5730288   8.7996926  78.7684807  17.2039387   8.2146181
  21.6108021  46.0990117   2.3235048  22.4877677  45.7712338   2.1242108
  21.0238728  45.3934453   2.0516266  30.6497502  62.5369120  70.5076361
  31.5702152  62.6306677  70.7529640  30.6554842  61.8963003  69.7964287
  55.3268957  80.2281094  33.2531261  54.9606562  81.0839844  33.4757829
  55.4868555  80.2739143  32.3105001  25.8835206  37.5395749   2.9696573
  26.5379557  37.6296876   3.6623539  25.9290299  38.3656476   2.4882330
   1.1228642  47.1622918   6.1670651   1.7193732  47.5856278   5.5496563
   0.4230532  46.8073247   5.6188883  16.0234880  40.7963514  59.5072699
  16.3038373  40.0140667  59.0322256  16.7413712  40.9784555  60.1136637
  27.5262675   9.6782658   9.5466770  28.0308995   8.9135382   9.8237576
  28.1860194  10.3087733   9.2578568  66.8094959  26.6751692   4.7163262
  66.3104435  27.4856684   4.8176445  67.6421228  26.8501542   5.1548971
  43.9469485   5.0581693  44.7958517  43.1961088   4.6322393  45.2094364
  43.5960619   5.8785962  44.4494295  11.5715146  50.6163549  45.3343248
  11.5380681  51.5687275  45.4242849  12.2211885  50.3374910  45.9796047
  39.3104557   9.1640233  55.0564384  38.8266580   9.4010686  55.8476257
  39.0886883   8.2450341  54.9063969  22.2682428  61.8455935  14.4702947
  21.9260764  61.9095993  15.3619552  21.6818285  61.2286425  14.0324330
  51.6247114  27.2733901   2.7314676  51.5607401  26.3265298   2.6065745
  52.2249767  27.5654481   2.0454516  73.3361864  61.6779137  52.0301723
  73.4777212  61.6729832  51.0835075  72.5479031  61.1499977  52.1572447
  26.1933446  81.2893677  60.4928541  26.7199087  80.6197166  60.0563574
  26.8319917  81.8338966  60.9531307  64.2357938   0.8657407  58.0117464
  64.3094222   1.4903211  57.2901440  63.7573044   0.1250028  57.6394892
  82.7614920   2.1407365  52.8632784  83.2972424   2.4557447  53.5912752
  82.6142208   1.2150430  53.0572891   3.7201516  38.1327294  66.0102654
   3.3667366  38.6737489  66.7163992   3.4211223  37.2467374  66.2147570
  13.0234179  20.2557347   6.0912003  13.0962214  20.6946013   5.2436604
  12.0875678  20.2750323   6.2913098  42.2852278  66.5529108  44.1602993
  41.7730141  66.6427517  43.3566856  42.9840374  65.9400320  43.9316559
  20.6233916  64.3715356   6.2360300  20.2323470  63.8403008   6.9296421
  20.0729737  64.2082570   5.4701246  79.0649939  76.0117340  70.0733614
  79.4890356  76.7427206  70.5228949  78.1359243  76.1085033  70.2823925
  15.7352631  18.1483602  53.5851955  14.9223368  17.8179120  53.2028484
  16.2423651  18.4613656  52.8361273  47.4556379  29.1653775  68.5960340
  47.2731380  29.0657949  67.6616859  48.3008818  29.6134137  68.6285591
  64.7656536  73.1681967  34.8764563  64.5620060  72.3152018  34.4928455
  65.4276276  73.5408354  34.2940784  46.4126587  52.0340681  57.5825644
  46.7011547  52.4569273  56.7737436  45.5806589  51.6202354  57.3528910
  31.3682294  73.3354998  65.7820129  32.1420741  73.8838625  65.6527901
  31.4861202  72.6073074  65.1720428  85.2828590  16.0004567  44.4786978
  85.1180927  16.8415116  44.9049759  84.9030296  15.3526258  45.0722313
  57.6245539  42.1495961  68.1539440  57.9296486  42.7638196  67.4862051
  56.9721000  42.6419400  68.6520672  75.0236599   9.5331048  62.5649214
  74.6802132   9.0488004  61.8141079  74.4565813   9.2795896  63.2931995
  61.9718838  62.8315163  65.2509403  62.1497393  63.4825277  65.9297514
  61.0755777  62.5436449  65.4241323  16.5938649  31.9165728  34.6286358
  16.0613522  32.5233910  34.1144051  16.0197148  31.6402314  35.3429379
  34.0795827  68.5869074  70.4746103  33.5730672  67.9329109  70.9562349
  33.7444925  68.5376692  69.5793295  41.3716342   2.0422384  21.0261692
  40.8195855   1.7842313  21.7643418  40.8497645   2.6891538  20.5514206
  10.4000854  77.3625803  55.3361940  10.2322006  78.1143761  55.9043980
  11.2617624  77.0455313  55.6067991  24.2268889   1.6801786  30.7737112
  23.5250228   2.3007344  30.9699917  24.0805953   1.4341783  29.8603010
  68.8484383  52.6866817  41.8948030  69.0690899  53.4376383  41.3437939
  69.1142893  51.9251347  41.3794374   2.7053675  55.8185361   3.0540337
   1.8856225  55.5504773   3.4692301   3.2291302  56.1797688   3.7691654
  66.9875233  27.8010987  63.5312319  67.3600571  27.6746511  62.6586151
  67.5941364  27.3498868  64.1183138  81.3515076  16.6071293   6.7900099
  80.9805235  16.2241194   5.9950890  80.6093916  17.0321152   7.2199883
  85.0741657  66.2000630  12.0293392  84.8201951  66.8459294  11.3701023
  86.0295805  66.2506459  12.0585884  38.7106657  69.0134621  70.3532267
  39.1747689  68.1878090  70.2148914  39.4016981  69.6753311  70.3785038
  26.3035283  79.3602727  16.7014660  25.5869469  78.8098977  17.0174374
  26.3309178  80.0938389  17.3157658  41.0335927   8.0227803  62.9507208
  41.4723007   7.2516297  63.3099985  41.5344731   8.2385301  62.1640778
  50.2493382  74.1331148  54.6492529  50.4986763  74.6354151  55.4249859
  50.5848455  73.2523251  54.8162031  60.4644918  68.6183882  39.1965890
  60.1595736  68.3764172  40.0710630  60.0828743  69.4822121  39.0403795
  53.8405180  64.2905331   0.7133699  54.4260502  64.1541195  -0.0314641
  54.1857624  63.7170649   1.3976011  17.0151990   0.6618165  27.4212027
  17.8570931   0.9774064  27.0927954  16.8676369  -0.1593066  26.9519281
  71.9727270   6.6955232  62.9310322  71.7739479   5.8212327  62.5958538
  71.1162941   7.0843457  63.1087112  19.6023306  37.6766799   3.6085428
  20.1106486  37.7257798   4.4181313  18.9879021  36.9574235   3.7547602
  30.2767539  71.8385315  60.5002928  30.8480334  71.4866734  59.8176003
  30.1568580  72.7578068  60.2619886  22.1651023   3.2953500  59.3704176
  23.0704253   3.3383607  59.6782732  22.1152346   2.4703263  58.8876343
  18.1160634   0.7909345  61.7129993  18.7083476   0.1004361  61.4152622
  18.5750334   1.6053437  61.5072918  11.1932978  48.7985299  22.0940651
  11.1474595  49.0565083  23.0147041  10.6183252  48.0359433  22.0300926
   6.0800021  27.1167134  26.0209608   5.4475682  27.0737123  26.7381811
   5.7182877  26.5403031  25.3477955  29.9453530   9.6371243   2.7896179
  30.2626547   9.6051953   3.6921324  30.6202016   9.1859887   2.2823776
  31.6584110  55.2773809  41.7138243  32.1764112  55.8586454  42.2706366
  32.1226573  54.4408274  41.7434883  80.7807962   5.8196401  24.7927523
  80.4079191   5.0819921  25.2755308  80.0207941   6.3180875  24.4924641
   3.9357260  74.9063063  45.9376383   4.2338607  75.6354618  46.4814043
   3.2089677  74.5229006  46.4286089   3.8367161  56.8228505   5.2198376
   3.5126934  56.2953732   5.9499087   4.2373047  57.5864766   5.6353344
   2.2896664   7.4778604  63.2609510   2.7385419   7.9930162  63.9312935
   1.3845151   7.4227761  63.5673857  68.7807552  12.5817346  46.5765524
  68.7736146  12.3761510  45.6417179  68.4870450  11.7757749  47.0012808
  39.1897742   5.5038880  59.6805239  38.5678540   5.3091191  58.9794397
  39.0026991   6.4111852  59.9214315  73.8244526  12.7545117  51.5346909
  74.4811909  12.0758866  51.3785076  74.0321247  13.4395646  50.8992243
  14.5115273   9.6340894  35.6937838  15.2902644   9.5776319  36.2475061
  14.7369187  10.2849816  35.0291228  36.0674605  17.8879187  31.8008198
  35.7013306  17.0243762  31.9918026  36.9914469  17.8144906  32.0397534
  84.6184262  29.5889876  15.3004517  83.8315996  30.0213835  15.6323685
  85.0494203  30.2545998  14.7643150  39.2386643  28.4089135  42.2339582
  40.0035898  28.0954503  41.7514038  38.5878418  27.7150392  42.1281433
  49.1287367  17.7538823  51.3643217  48.7493388  17.6454782  50.4922342
  48.7588279  17.0354699  51.8774414  20.4884076  54.8437071  15.4511678
  21.1685920  55.2782059  15.9657443  19.6984470  55.3588915  15.6148136
  84.2031900  31.6070794  42.0307636  84.3255846  30.9064054  42.6713085
  84.5797340  32.3817491  42.4482870   6.0594496  36.6927502  15.5823197
   6.5728674  36.7346022  14.7755493   5.9666166  37.6056454  15.8547749
  78.3981976  19.9122641   9.9712052  78.9028725  19.6017668  10.7229580
  78.7161431  20.8024428   9.8204674  48.6422829  15.0215959  40.1575851
  48.6792902  15.3275727  39.2513609  48.0195848  15.6104039  40.5839443
  15.6579194  66.8059800   8.8286938  16.1505971  66.0595963   8.4874977
  14.9631915  66.9484398   8.1858172  79.5971243  20.8185052  50.5273104
  79.5942108  21.7435216  50.7734251  80.1910631  20.7718610  49.7781134
  22.7493095  38.0292511  20.1590490  22.6975775  38.6945844  19.4728363
  21.9746542  38.1824136  20.7000470  10.1614571  30.0815535  64.8860693
  10.1923728  30.4086947  65.7851028  10.9660947  30.4091048  64.4842005
   1.1185761  70.0160837  55.2738905   1.4287180  70.8749819  54.9869585
   0.1661506  70.0658464  55.1923990  56.7758505  53.5897373  17.6394715
  57.0195333  52.7622615  18.0543579  56.7688124  53.3948551  16.7023434
  53.8754774  72.0236135  39.7526789  54.1811521  71.3864661  39.1070485
  53.6470298  71.4973916  40.5189228   9.7177976  48.2262325  50.1231146
  10.2440429  47.6839590  50.7106781   9.2922854  47.6006937  49.5367050
  66.2887854  65.5374778  66.3041735  66.0440130  64.6210195  66.4323187
  67.0766611  65.6515230  66.8356609  79.8759158  51.0168601  45.9234428
  79.9562247  51.8393112  45.4403734  78.9473898  50.9614182  46.1492777
  26.9613838   5.5543911  24.3309164  27.7644086   6.0750335  24.3486357
  26.3722706   6.0020143  24.9382138  20.5752635   3.9086387   1.9961801
  20.0282907   4.3878520   1.3737598  20.1092815   3.0849549   2.1398440
  60.2450704   6.2355453  56.0537624  59.8072004   6.8517035  56.6410017
  61.0517859   6.6819328  55.7965088  30.2184772  11.1675441  41.5273523
  30.2387071  11.8229127  42.2247171  30.0305414  11.6682494  40.7334948
  22.0940733  21.6722441  26.6575837  22.5349092  20.9051633  27.0229363
  21.5664840  22.0121479  27.3803186  29.3423048  52.4965464  22.4668850
  28.9616615  53.1341396  23.0708946  29.3485153  51.6751479  22.9583134
  82.9673310  27.7050447  28.2463598  82.4297985  28.4346247  28.5545921
  82.4706092  27.3326445  27.5177884  33.2177067  13.6932683   9.6005589
  33.9782739  13.1207168   9.5007867  32.4704313  13.0958354   9.6303374
  61.7178575  73.1849308  24.6581101  62.3901982  73.6817516  25.1243281
  62.0578141  73.0992360  23.7674260  63.3791398  46.7211771  56.0254574
  63.1037068  47.2906542  55.3070784  62.5677847  46.5071917  56.4860439
   3.6895378  79.3687415  53.8238764   4.2080458  78.6134441  53.5465527
   4.1735561  80.1257330  53.4938383  27.4791384  26.6412044  27.7119780
  26.7669988  26.1071134  27.3600698  27.0838118  27.5003839  27.8594851
  74.7939531  31.6534417   1.6175999  75.3487436  32.4159466   1.4532055
  74.6314518  31.2838893   0.7496990  24.9229908  19.1315389   3.1598893
  24.5862103  18.2376063   3.0991140  25.3895974  19.1554141   3.9953175
  27.0173120  14.8138118  56.3845062  26.9628596  15.2745867  57.2217369
  26.8295383  13.9005399  56.6010857  43.7517643  20.6379890  17.3464525
  44.4695377  21.1932278  17.6509869  44.1627789  19.7924709  17.1664667
  14.9762074  57.7522098  16.5790905  14.6312730  57.3779927  15.7684101
  14.2586319  58.2854901  16.9210495  19.2897248  16.3628280  46.8852568
  19.1626370  15.4412842  46.6597843  18.9443159  16.8433201  46.1328888
   7.2168668  76.5595503  10.9127533   7.0564731  76.2657804  10.0159788
   6.4365347  76.2889899  11.3966036  11.9825482   4.3038237   8.9251453
  11.5106404   3.7620002   9.5575714  12.5104666   4.8943862   9.4625187
  30.3077270  71.7320107   6.5584530  29.7953756  72.3761200   7.0471777
  30.6911240  71.1700867   7.2318615   8.0030211  75.3540785  40.4190683
   7.2481640  74.7749699  40.5242252   8.0429991  75.5270625  39.4784784
   8.3031118  22.4919295  39.5297670   8.0829978  23.2506824  38.9893270
   8.1547105  22.7867079  40.4282761  50.3277659  23.7312269  52.0939732
  50.1493024  23.3320856  51.2424660  51.1823463  24.1492319  51.9881678
  78.2756298  17.9688168  37.1341825  78.5626464  18.2171094  36.2554312
  77.3852717  17.6396036  37.0112491  44.1883817  65.2373054  65.6953798
  44.6608785  64.8896339  64.9390046  43.7661841  64.4723704  66.0863499
   2.1875803  23.0496645  37.1168470   2.1114311  23.7604165  37.7534509
   1.2832618  22.8360128  36.8870783  28.7253428  35.3324938  18.5395086
  28.3269072  34.5719051  18.1164396  28.1150699  35.5642009  19.2395866
  30.2162194   6.2713921  47.4389362  29.7858357   5.4556143  47.1829891
  29.6361303   6.9602370  47.1145582  12.4446118  33.4541416  39.5059729
  12.8649747  33.5695648  40.3581524  12.4882388  34.3190718  39.0982723
  70.8583199  47.3835468  69.5468664  71.3161778  48.0254936  70.0895452
  70.0731038  47.8408384  69.2459488  31.7547798  38.6946225  36.5902448
  32.4957514  39.2314696  36.8712902  31.4990425  38.2097554  37.3749328
  77.0802605  30.4786158  41.5581322  76.8173932  30.3984356  40.6412363
  78.0112904  30.6979680  41.5220737  49.6578265  71.5040029  40.8162594
  49.6901001  70.8138896  41.4787817  49.5791138  71.0350252  39.9855399
  81.3107013  28.8163853  40.7236862  82.0543342  28.6094189  41.2897301
  80.7491314  29.3753123  41.2607813  30.1173687  27.9929805  16.2481213
  29.6965861  28.7486315  15.8380437  31.0248470  28.2669830  16.3809264
  51.1669214  70.9747554  25.1744270  50.8000512  70.1488126  24.8590565
  52.0977748  70.7907403  25.3004479  34.5145535  10.5250156  11.7041540
  34.0407634   9.8512870  11.2164581  35.0381184  10.0370240  12.3397446
  47.4174547  11.3406193   4.7804746  46.6230678  11.8246365   4.5548505
  48.1238818  11.9782066   4.6771535  36.8267400  72.1385289  34.7505975
  35.9986670  72.2212935  34.2776537  36.6704423  71.4407290  35.3868961
  31.2025118   2.7642921  45.7794952  31.3350177   2.4573541  44.8825788
  30.5901027   2.1347329  46.1600780  18.7560117  42.1776390  35.4344964
  19.0657127  42.3162031  34.5394444  18.2580495  42.9686546  35.6407952
  66.9211054   4.8581162  37.9955482  66.2147999   4.8066163  37.3515654
  66.5173197   5.2655423  38.7618327  30.1209021  40.6975079  34.1135144
  30.1772761  41.1400557  34.9603963  30.2147079  39.7680664  34.3222451
  21.8439300  56.3334847  34.5861745  22.3804242  55.7353188  34.0659785
  21.8333299  55.9460975  35.4614162  86.5679724  80.4289314   1.8025722
  86.1515338  80.6490315   0.9692844  86.8435795  81.2719212   2.1626270
  36.0467240  43.0481317  55.2488123  36.9280544  43.2197403  55.5805336
  35.4722878  43.5578062  55.8202015  27.6612449  18.5691655  12.0485651
  27.2057390  18.4431469  12.8809524  27.7915311  19.5155013  11.9877052
  51.5281398  81.0870012  58.3780670  50.8443446  80.7368053  58.9490509
  51.1780251  80.9827490  57.4933195  82.3813629  11.2415648  13.3159745
  81.9591754  11.3920271  12.4701905  82.1529605  12.0107675  13.8378870
   6.7621368  46.8108511  59.3028641   6.9062322  46.0155106  58.7901211
   7.3092324  46.6971970  60.0800371  67.8415560  13.7947643  65.7949257
  68.4487259  14.1326237  65.1365757  66.9961631  13.7628746  65.3471279
  54.3956945  64.8120476  40.7766581  53.8579885  65.3947771  40.2404404
  54.6364753  64.0978409  40.1866055  53.2404606  68.9696811   3.1252064
  53.9783923  69.3847583   3.5717453  52.4885838  69.1454671   3.6909022
  52.8975431  67.3136185   0.5359663  52.8552119  67.6205610   1.4416327
  53.0569736  66.3726328   0.6091942  76.7365622  22.7801442  22.0587349
  76.5311193  22.0480633  22.6401830  75.9371423  23.3064127  22.0445895
  50.1556921  13.8286304  59.6691084  49.7092772  13.6444974  58.8426447
  49.6393061  13.3653903  60.3286409  14.7348988   3.6548704  42.8775215
  15.2782357   4.3796054  43.1869984  15.2981043   2.8844914  42.9520035
  65.0319879  62.3123978   4.5764841  64.4508974  63.0231570   4.8473849
  65.9094469  62.6930808   4.6135773  70.0388415  59.6795321   6.8738401
  69.7896225  59.7783614   5.9549522  69.6582408  58.8414241   7.1364242
  32.9426087  59.0314208  15.2754273  33.1173874  58.0996154  15.4074158
  33.7417589  59.3701969  14.8719086  37.7364301  33.6812401  68.8027811
  37.9409932  34.0119195  67.9281187  37.8030729  34.4488740  69.3706989
  21.1893773  20.1883984  56.5030050  20.6957483  19.7606933  55.8032703
  20.8615470  21.0876608  56.5122509   6.4677048  33.6310363  31.0814261
   6.5372622  33.7977195  30.1414204   5.6261081  34.0128541  31.3307500
  48.3349947  70.5786942   7.1055998  48.3415226  69.6342228   6.9501509
  48.1598680  70.9616970   6.2460198   1.2433545   6.4224637  49.4893265
   1.4291254   5.8742905  50.2517080   1.6814569   5.9789580  48.7629652
  79.2780125  50.6491899  66.3595009  79.5957368  51.0835886  67.1510696
  78.3720213  50.9451580  66.2711000  42.6565695  41.6345930  24.9302268
  42.7118301  41.3316679  24.0239072  43.0949545  42.4854898  24.9255133
  42.1131849  10.4203308  30.9479260  41.9087696  10.3913736  31.8825960
  41.9425964   9.5309818  30.6377792  54.1458225  23.6932826  50.2274752
  53.8911867  23.7103987  49.3049240  54.4542169  22.7990937  50.3742743
  38.0084474  52.6784540  26.6772175  38.8004978  52.9188372  27.1579504
  37.7817066  53.4647752  26.1807084   2.2586878  67.7652431  26.7308211
   2.8608354  67.9521347  26.0105968   1.8184526  66.9559503  26.4710736
  29.4245681   7.0234702   6.2019076  29.4982943   7.0208094   5.2475561
  30.3238853   7.1318028   6.5113033  19.1797280  20.2731252  15.6756234
  18.9288890  21.1577702  15.9415483  19.7512031  19.9646306  16.3788152
  39.1884732   2.7068827   1.6071475  39.3953061   3.5178769   2.0716263
  39.9303508   2.1303053   1.7899241  47.8056757  46.3043039   7.8130068
  46.9778423  45.9012245   8.0746330  47.5524322  47.1432446   7.4279370
  15.1365650   7.4894571  61.1291742  15.5882370   8.3275878  61.0303783
  14.4880009   7.6463282  61.8154573  19.8265219  15.4477870  38.2228422
  19.2922997  16.1505604  37.8527784  20.4655504  15.8981586  38.7751460
   8.7595993   7.5421578  24.0768671   8.9274889   7.1440852  23.2227111
   9.6096677   7.8851336  24.3525171  75.4676814  78.9097802  24.2274094
  75.5990321  79.5696629  23.5465765  76.2590809  78.3722655  24.1958547
  62.6310230  80.9665773  39.8987150  63.5125930  80.6005339  39.8274541
  62.7443681  81.9003759  39.7215009  12.9355478  43.1657028  48.5539389
  12.7531719  43.1753778  47.6143217  13.8340139  43.4876871  48.6268568
   3.1862187   5.9843761  66.6336679   2.6921341   6.7497778  66.9273901
   4.1028711   6.2248939  66.7683220  81.5326936  69.7427429  51.0363722
  82.0668990  70.0038327  51.7864990  81.2108667  70.5676568  50.6728125
  26.4235520   6.2764323  36.2747121  26.4848638   7.0440251  35.7061410
  26.7141104   6.5891582  37.1314573  57.0187997  35.4360414  64.8820734
  56.1395501  35.4603910  65.2596426  57.0417880  36.1801600  64.2804146
  84.0622278   3.7848347  33.6383367  84.0941226   4.4288605  32.9309154
  83.5337546   4.2022294  34.3185806  68.7021434  52.2190619  38.5215640
  68.9438199  51.4989901  37.9390574  68.8233768  53.0068731  37.9915762
   6.0171229  16.6722500  39.6031690   5.2655154  16.4558125  40.1549578
   6.0414386  15.9753489  38.9474463   2.3736563  40.4890442  39.0840578
   2.5962445  39.5586085  39.0527558   1.5517080  40.5223465  39.5734692
  41.3009644  16.6725850  28.4775519  40.5812120  17.2828698  28.6380005
  41.2064028  16.4273930  27.5571322  59.6241346  65.5369938  67.5123119
  59.1921712  64.8687483  68.0443716  59.1215513  66.3350738  67.6757431
  77.5754791  14.2736876  18.8516033  76.6259157  14.3941653  18.8585103
  77.7066689  13.4294987  18.4199023  86.0142570  33.6990476  64.6880865
  85.6660082  33.6812568  63.7966633  85.9650130  32.7896333  64.9826574
   5.1007277  23.3017850  28.7067318   5.8700198  23.0593061  28.1913447
   5.3237665  24.1526937  29.0841460  76.7283614  53.2700611  32.7471757
  76.5231294  52.8504706  33.5826707  77.4013026  52.7117706  32.3576975
  15.9452736  19.8853076  69.0773916  16.6605473  19.3385434  68.7523317
  15.6737709  20.4009056  68.3179998  24.4771218   6.9145882  70.7064867
  24.6638870   5.9927601  70.8842039  24.5059896   6.9851911  69.7523308
  18.2628477   3.8617057  59.5059633  18.1764996   4.5730475  58.8713217
  17.5679862   4.0242296  60.1439142  64.3363301  55.6545745  29.6587052
  63.6840670  56.3533639  29.7084774  64.6710937  55.7027494  28.7632431
   5.1554400  20.6780505  42.0758963   5.3441721  20.6564569  41.1377382
   5.6804883  19.9664843  42.4422741  25.6036043  14.3594384  41.7281675
  25.9584475  15.2307820  41.5518761  25.2799916  14.0564728  40.8798027
  14.8560822  38.9673853  52.7006388  15.1670361  38.0766773  52.5388288
  13.9800477  38.9889097  52.3154974  56.5942001  11.4173937  50.7754660
  57.2557259  10.9748220  51.3072109  55.8053780  11.4076912  51.3175869
   0.8845884  47.9131174  13.4331405   1.0869237  47.8570604  14.3670309
   1.6795002  48.2699013  13.0368423  20.9413075  16.2126660  35.2943683
  21.3130260  15.7398176  34.5497394  20.4173493  15.5581975  35.7562876
  75.9122907  19.0653300  35.2653670  76.7385065  18.6799383  34.9736953
  75.6127810  18.4871364  35.9669495  26.7641401  22.2106791  27.6773787
  27.2820711  21.4200974  27.8289056  27.1238446  22.5819087  26.8717527
  83.4418225  39.2032361  61.8392372  83.1801414  39.5962524  61.0065985
  82.7304887  39.4217873  62.4412966  84.1960866  45.7884646  25.2814698
  84.7539790  45.0194050  25.1651311  84.1311653  46.1717940  24.4067836
  13.1537142  22.0957973  63.0408244  12.4050572  21.5331008  62.8430425
  13.3715835  22.5073137  62.2045122  62.5318713  71.3296009  65.4384041
  62.1777750  70.6602205  66.0238743  63.4390510  71.4409269  65.7227659
  14.8626912   7.7366322  56.7223930  14.0387392   7.9534209  57.1586704
  14.7959900   8.1539708  55.8635473  40.1156855  18.8607645  49.4134712
  40.3072739  19.7053504  49.0057945  39.6106577  18.3854318  48.7537479
  31.6173671  67.2797464   1.3993134  32.1925665  67.6105832   2.0891871
  31.4617415  68.0362938   0.8339371  21.8413019  28.7589979  30.8336234
  21.7232871  29.4221377  30.1535130  21.0155940  28.7628961  31.3177967
  55.1208569  72.6432694  66.5721893  54.4980333  73.3302070  66.3346195
  55.1721550  72.6862616  67.5270462  24.5176435   2.4542999  63.9275694
  25.2445316   2.6323485  63.3307743  24.6256399   1.5343101  64.1687870
  71.4908063  35.0300217  40.6225443  72.2024726  35.5413771  41.0076141
  71.0696577  35.6307697  40.0077534   3.6902869  18.5421884  31.1557889
   3.7337220  19.4085360  30.7510805   4.1606703  18.6406827  31.9835997
  22.7291346   6.0938013  48.6733627  22.7510571   5.5028021  49.4260025
  23.4801006   5.8315170  48.1409264  78.3259375  78.7683261  19.1884708
  78.0738218  79.6910224  19.2245615  78.4069617  78.5061286  20.1054883
  21.1909842  11.3173151   9.6091038  20.3170872  11.1901343   9.2398345
  21.0766792  12.0070195  10.2629197  41.3574330  26.1974131  19.9844898
  41.9073300  25.6281279  20.5227913  40.6488351  25.6294976  19.6818508
  29.2317295  39.2496514  50.9295940  29.9395585  39.8423576  50.6767988
  29.0756583  39.4434547  51.8538857  13.3012426  29.5898223  50.0992012
  13.4322476  29.4636965  49.1594362  12.7690423  30.3829074  50.1625252
  20.2656627  30.8042121  42.8070307  20.2923107  31.3900852  43.5635185
  19.6513784  31.2210631  42.2027779  11.6697633   3.2686508  47.1842766
  10.7281411   3.1014600  47.1439552  11.8297267   3.9066899  46.4889002
  53.6790736  73.8586802  31.0399246  53.6980710  73.8884664  30.0833750
  52.7502079  73.9191897  31.2630343  31.6004920  15.8402812  43.5442686
  30.9855747  15.8566940  42.8108978  32.4492192  16.0408568  43.1497288
  48.6309289  15.7364428  37.1185446  49.0695500  16.5848374  37.1823382
  47.7383160  15.9482360  36.8453884  83.0393794   4.2027238   9.7189546
  82.8160157   5.0029302  10.1943600  83.6650645   3.7533301  10.2871048
  10.0338387  30.2652311  32.1984673  10.2000308  30.1578903  31.2619352
   9.1988689  29.8210573  32.3460031   6.2042904  30.8482742  53.7048388
   6.4250678  30.5181408  54.5757627   6.6070867  31.7158318  53.6683512
  51.9373560  22.9455686  66.8308592  51.5917063  23.1290841  65.9573174
  52.1349430  23.8079214  67.1962881  22.1424437  31.5575171  40.4387379
  21.7984080  30.8491087  40.9828234  22.4698305  31.1189890  39.6534109
   8.3586574  46.8880796  48.3468103   8.1781882  47.6013088  47.7344704
   7.8851056  46.1380100  47.9871273  71.3051700  63.1691456  48.7314320
  71.0945772  63.4539270  49.6206951  70.5376267  62.6703501  48.4515905
  25.3977919  53.6580133  26.2623811  25.3020954  54.5963621  26.0993648
  25.4907489  53.5882282  27.2124982   7.4385768  28.2527137  39.7035265
   8.0788630  28.4888601  40.3747177   6.7034888  28.8470244  39.8540950
  58.6389806  31.3434670  43.9094605  57.9244703  31.9795058  43.9436115
  58.2344673  30.5470631  43.5654606  73.6118841  55.3447676  23.8504720
  73.2367014  55.5227280  22.9880333  73.8893663  54.4297123  23.8067722
  41.7369795  51.5768957  20.8524108  40.9276581  51.7074108  21.3465810
  42.0177984  52.4606371  20.6149840   1.0829034  37.7004194  39.8860502
   1.6797265  37.2923541  39.2587399   0.7847293  36.9775176  40.4380798
  15.8410299  47.7678394  40.8605433  15.6104600  48.6050797  40.4579258
  16.4399052  47.3585844  40.2359724  86.1502043  22.9432344  29.2722082
  86.9098214  22.3612380  29.2943716  85.6020263  22.5949049  28.5690737
  36.2504339  21.9095516   4.5110902  35.4702282  21.9801331   3.9610621
  36.5558743  21.0119915   4.3794677  31.2051105   1.6864273  29.7876525
  30.5099297   1.5104744  29.1536212  31.5427256   2.5472426  29.5401764
  85.3408555  26.0840988  39.6577001  85.0753742  25.6431842  38.8506389
  86.0143197  26.7053938  39.3808079   3.7592524  38.7210846  47.7982616
   3.2999277  39.4243956  47.3393440   4.3677956  39.1736364  48.3823013
  13.1768751  17.7955246  61.9662571  14.0073586  18.1641710  62.2672987
  13.3742046  17.4350429  61.1017609  26.9148493  31.8233013  35.9304690
  27.2845149  31.2109375  36.5665436  26.5355182  31.2643051  35.2523351
   9.6391147   0.5324670  19.0482485   8.8786328   0.6103373  18.4721971
  10.3463256   0.2403880  18.4731185   0.5752808  20.1715565  59.0078974
  -0.0596276  20.8875108  59.0309572   1.3693538  20.5671024  58.6484241
   1.4156368  56.0760927  17.9649091   2.1165767  55.4268265  17.9068494
   1.8692037  56.9190073  17.9633451  36.2326574   9.4780850  42.9789162
  37.0660043   9.6975678  42.5622749  36.3140631   8.5512304  43.2037401
  85.8767609  23.4199858  23.3396101  86.0215274  22.6706171  23.9172959
  86.6209742  23.9983630  23.5065150  35.7031155  33.9754748  27.8491735
  35.3087926  34.0923858  28.7135077  36.5302634  33.5258603  28.0221009
   5.6106728  24.9564934  42.4811554   5.5979908  25.3210497  41.5961838
   6.4977032  24.6122909  42.5857115   9.0706933  36.4719582  45.6076336
   8.5347229  35.9564233  45.0049829   8.4373128  36.9594908  46.1342955
  82.6926100  16.3716078  20.3424430  82.3703962  15.9856212  19.5279348
  83.6457991  16.3218951  20.2703977  84.3425878   6.2170243   6.0554689
  84.1828200   6.7800695   6.8128896  83.8030791   5.4425520   6.2147015
   3.7247714  13.5007775  41.1937428   3.4545249  14.1133142  41.8778467
   4.4077837  12.9700279  41.6036606  52.3671786  62.2950481  20.2203144
  52.9366056  61.6073822  19.8752083  52.8658144  62.6795171  20.9412731
  25.1374125  47.3110294  13.3509469  24.3281150  46.8655682  13.1002855
  25.6733990  46.6265440  13.7514865  40.7675028  15.1543760   3.6005142
  40.4432678  15.8786190   3.0651879  39.9768806  14.7328627   3.9373764
  51.7403383   4.7706725  68.0418910  52.3946686   4.3444659  68.5954524
  52.1739061   4.8739935  67.1947928  10.2138376  25.2256799  58.8175344
   9.9602586  24.5130205  58.2309818  10.6218171  24.7875118  59.5643902
  84.8101952  40.2290392  13.8234401  84.7035311  41.1784124  13.7638831
  85.6290975  40.1097345  14.3044782  61.3906610   0.7036469  22.3825993
  61.7286279  -0.1590993  22.1424355  61.1329302   0.6130431  23.2999863
  22.9758048  16.0511184  52.0069265  23.8163948  16.3984132  51.7085552
  23.2083678  15.3216636  52.5814199  66.0193885  80.1819747   2.0302327
  65.6543548  80.7266147   2.7276206  66.9464893  80.4184549   2.0020784
  17.0573831  25.9043646  27.6877379  16.6442645  26.5018439  27.0643759
  16.7926013  25.0322938  27.3951364  70.4663824  33.7267184  54.3975496
  71.2930333  33.4494781  54.7925377  70.6639408  33.8141608  53.4650469
  16.4520860  60.6376457  36.9063306  16.0347772  59.8806190  37.3174167
  15.8505785  61.3631153  37.0740032  23.3441496  64.8764944   2.6216322
  22.5648737  65.3909779   2.4112278  23.8970709  64.9502611   1.8437710
  30.7681674  81.6544797  61.9588928  31.1219546  81.7570855  62.8423743
  31.5404132  81.5628936  61.4007889  33.8890743  34.5358157  62.2640324
  33.2363462  33.9825344  62.6930523  34.2503619  35.0715423  62.9702187
  19.7292233  22.3748970  37.4757147  19.3071306  23.0177832  36.9058323
  19.2467594  22.4325705  38.3004189   8.4076154  51.1403704  31.8354821
   7.5067031  51.1568403  32.1584630   8.8530099  50.5087662  32.4002218
  34.4124436   5.1943392  64.0633059  35.2676797   4.7945935  64.2214346
  34.0835953   5.4095566  64.9360991  19.6545470  10.3230727  38.6699033
  18.8111329  10.3129113  38.2173753  19.8292685  11.2504637  38.8300610
  25.1620603  11.3588190  19.8050487  24.7422671  12.2190487  19.8018694
  25.5741620  11.2902319  18.9438295  73.3694481   7.8050506  26.6550756
  72.8383493   7.0087594  26.6457820  72.7381718   8.5124665  26.7865515
  12.8619063  43.3375359  64.9041653  13.2390916  44.0745306  64.4237471
  13.3538461  43.3096361  65.7248068   0.9000292  39.8060489  22.5078368
   1.3361022  39.4902205  23.2992435   1.5297541  39.6422625  21.8058014
  81.7830284  81.1749509  23.2759929  82.2014434  80.5072332  23.8194227
  80.8982475  80.8418890  23.1261158  75.3278958  39.8292184  50.5433893
  76.0377395  40.4695988  50.5910110  74.6829902  40.2294445  49.9601650
  29.0239143  17.6499283  24.1154552  28.6094403  17.8403175  24.9569964
  28.8181281  18.4090614  23.5699272  39.5630097  23.3614254  55.8443022
  39.1694379  23.3263564  54.9724627  38.8197184  23.4636474  56.4386940
  16.7289162  21.1649919  43.1984997  17.0606899  21.9290686  42.7269650
  16.1381960  21.5285254  43.8581419  16.0704243  25.7106447  43.2677126
  16.4875984  25.8128452  44.1231394  15.3698492  25.0757647  43.4172153
  66.9812381  17.3926413  49.0140915  67.9100358  17.1920240  49.1295052
  66.8045782  18.0843496  49.6517181  46.4483500  37.2902393   4.9531731
  45.6886816  36.7407560   4.7603008  46.1615515  37.8509688   5.6739783
  18.0841839  39.0456748  22.8427291  18.6375380  39.2554188  23.5950828
  17.2024333  38.9703608  23.2075262  58.0847350  76.3328125  54.9375318
  58.0120507  76.7974999  55.7712077  58.1182495  75.4077246  55.1810942
  77.1544778   8.5373169  31.0461473  76.2268173   8.3320236  31.1624742
  77.6144516   7.8424358  31.5171003  44.3424749  27.1012664  49.1605949
  45.0136852  26.8425393  48.5291195  44.6824694  26.8070006  50.0056076
  66.1357521  35.3875661  61.4359188  67.0012831  34.9897361  61.5298367
  65.7427382  34.9329185  60.6908941  59.6422147  17.5279474  30.1291704
  60.1829027  17.0663369  30.7701087  58.7505841  17.2297120  30.3088498
   8.8407677  41.8541384  26.5510774   9.7547209  42.1386003  26.5517521
   8.8844007  40.9076929  26.6873789  14.0006936  41.9138145  24.2590499
  13.7609565  42.6366568  23.6791754  14.9237871  42.0654821  24.4618440
  38.0439639  13.5602939  33.4798408  37.8066826  13.9405644  32.6340747
  37.9341650  12.6172864  33.3577228  55.4756905  59.9637414  40.3054523
  55.7575534  59.8191286  41.2087107  54.9735178  59.1798426  40.0828409
  57.6074480  26.3075686  36.7908239  57.4511003  25.3975320  36.5385985
  57.9920792  26.7093277  36.0117984  20.0578690  10.5015481  12.8892469
  19.4736576  11.1423397  13.2946050  20.6140280  10.1971734  13.6063766
  79.2161662  80.9082715  40.2891779  78.8663561  81.5627257  39.6845675
  79.8912747  80.4535217  39.7855282  78.2702715  81.4180997  60.5857420
  78.5048182  82.3439679  60.6488895  79.1100700  80.9601715  60.5500793
  33.0143642  23.2636595  46.7389536  33.6711526  22.5696826  46.6818810
  33.1835008  23.6847782  47.5817347  73.4977619  72.9349469  11.4864983
  73.9810268  72.1288990  11.3049187  73.9066021  73.2863115  12.2774567
  19.7476017  40.9372377  27.4834299  19.9808395  41.8586922  27.3704958
  19.8664844  40.7730007  28.4189129   0.1297221  78.8813114  57.2673893
   0.1406168  78.0293798  57.7036572   0.3573794  79.5059729  57.9560137
  83.9484980  55.0584173  46.4936495  84.0707492  54.9082136  47.4310493
  84.3297664  55.9224653  46.3378048   8.1471384  28.4044337  23.9092183
   8.6078972  28.9501643  24.5464873   7.8278643  29.0221024  23.2513571
  10.9202766  38.9585686  59.7092533  11.8394947  38.6922646  59.7280169
  10.4321635  38.1352186  59.7177649   4.8434299   8.5071301  13.7620378
   4.5482087   8.5118318  14.6725619   5.7665670   8.2587981  13.8108408
  21.8564606  28.4682441  25.2616215  21.8795013  27.5113869  25.2727914
  21.0743666  28.6948824  25.7648087  22.4354982  59.2050743  32.1058440
  22.3076034  58.3778620  31.6415215  22.9727125  58.9738417  32.8635812
  53.7826411  79.3024539   7.7142300  53.6118285  79.6082233   6.8234123
  53.7075440  80.0882076   8.2556976  16.5598559  27.3873091  52.7432728
  16.3046002  27.9110336  51.9838095  17.1168864  26.6976237  52.3823261
  10.5923581   9.9460483  62.4493265   9.9808651   9.2118281  62.3925018
  10.2533984  10.4852998  63.1638527   9.0722196  61.3333462  -0.0238214
   9.8805670  60.8290790  -0.1161323   8.5697977  60.8610629   0.6400694
  74.7107696  42.0355606  27.8797793  74.6538293  42.9461002  28.1694508
  75.5676245  41.7395973  28.1870842  22.9360747  50.8218431  22.4676538
  22.3644543  50.0580931  22.3890972  22.9417896  51.2078381  21.5917516
  42.9093416  63.1980885  66.9993019  42.0298083  63.3666075  67.3373175
  42.9919155  62.2445322  67.0113087  85.2376790  20.2721763  39.8825550
  86.0212055  20.0212669  40.3717995  84.5876344  19.6090996  40.1149368
  27.4581766  40.3089905  41.6156244  27.5686312  40.5874920  42.5247288
  26.7091084  39.7134447  41.6368961  82.7339712  31.2536695  70.6034680
  82.4646821  31.1653545  69.6891837  83.0668369  30.3878906  70.8398107
  75.6089389  16.8879330  36.9997096  75.6907284  15.9608710  37.2235346
  74.7164547  17.1187246  37.2574663  17.6165020  52.3737955  39.4925499
  16.9679940  52.6267052  40.1495934  17.8591669  51.4782619  39.7278476
  32.5661135  35.4099250  57.6844454  33.5084128  35.5285311  57.8037596
  32.4180675  34.4800305  57.8565264  15.6695819  59.8712301  25.6612468
  15.5093753  60.6020641  26.2582779  14.9253297  59.8859644  25.0594950
  71.5424311  33.6973119  51.7607737  71.4188778  32.9922390  51.1252880
  72.4438595  33.5907006  52.0645666  14.5674944  36.8687820  56.9979525
  15.4546773  36.7266345  56.6679049  14.4050992  37.8011346  56.8545103
  86.4846623  12.8890812  36.6820836  86.5840242  12.2942185  35.9387827
  85.5393759  13.0166090  36.7620969  16.7285264  42.6042843  24.4652843
  17.0687973  42.7185822  23.5779357  17.1274734  43.3143902  24.9680996
  76.4352464  14.6806359  57.3210239  75.5437767  14.6977472  57.6691961
  76.5656447  15.5547810  56.9534683  23.5447907  18.8363266  24.7560239
  23.7738872  18.0015290  24.3475413  22.8038025  19.1586709  24.2429328
  17.8582394  16.0715055  17.8163660  17.5151789  15.5173314  18.5173881
  17.1396875  16.1339736  17.1870708  21.9804215  41.5279436  35.7362533
  21.0298228  41.4352131  35.6730604  22.3266554  40.8293438  35.1810002
  62.7039684  80.0174179  50.8056641  62.6461108  79.0671600  50.9051323
  61.9032399  80.2586875  50.3399849   3.0642843  13.7571847  21.4013886
   3.5716784  14.0442967  20.6422114   3.2926214  14.3799472  22.0915055
  25.7272100  57.0406294  50.2531004  26.2539339  57.8351402  50.3399515
  26.2655306  56.4531755  49.7226858   6.9670856  52.6943827  41.5666056
   7.4026251  52.8256369  42.4088144   6.6143340  53.5555601  41.3426065
  19.5658147  33.3833385  24.1974807  20.4073381  32.9365206  24.1057038
  19.1349626  33.2586694  23.3518696  55.5621972  79.5623662  69.1012645
  55.4783025  79.5818689  68.1479476  56.0182681  78.7410595  69.2848144
  32.6401401  26.2076283  42.0136738  32.6797462  27.1333766  42.2537899
  32.6025319  26.2096667  41.0572147  12.6071346  19.7885597  12.5642693
  12.2503591  20.1642036  13.3691514  12.5027966  18.8434434  12.6742744
  42.3908321  80.9342311  22.1452202  41.5604250  80.5106329  22.3625244
  43.0227355  80.2163480  22.1055569  23.2783961  45.2055407  41.3452196
  22.5459433  44.5926857  41.2807894  23.0835223  45.7309484  42.1212387
   7.0939529  45.0199938  38.8475537   7.2029614  44.2196512  38.3339310
   6.9204181  44.7119617  39.7370672  21.0989149  74.7228391  57.6060057
  20.9293230  73.8450778  57.9480648  20.6334789  75.3071732  58.2044649
  11.9172859  72.8688049  38.9929128  11.9260001  72.2194147  38.2897425
  10.9889066  73.0482388  39.1417360  68.6935718  72.1659041  35.7395649
  68.4977431  71.7836196  34.8841453  69.3579049  71.5873934  36.1140251
  20.4426122  69.3116522  46.0543346  20.5906463  70.2143526  46.3362026
  20.9801769  69.2149734  45.2682638  14.2471778   5.1592660  45.7242537
  13.7805843   5.6299251  46.4149046  13.5611975   4.8856878  45.1153040
  71.0357022  39.7405410  53.7199354  71.8118083  39.8711419  53.1751108
  70.9332442  38.7899995  53.7669230  82.1609246   9.2858803  52.8924274
  81.3387274   9.0069544  53.2954454  82.5910600   8.4699917  52.6364183
  79.8591881  17.0362890  48.3867121  79.1367995  16.4084220  48.3736610
  80.5758744  16.5861475  47.9395390  63.4511446  20.0603437  14.1343224
  63.8110327  20.7437825  13.5689676  63.7652206  19.2417729  13.7502253
  79.6092328   5.3339646  21.7505230  79.5059427   4.4250844  22.0324864
  80.5529746   5.4425166  21.6330589  35.4270051  38.4212437  12.3626007
  36.2814878  38.0109494  12.2293724  34.7955356  37.7375643  12.1388592
   5.4598129   2.6684254  15.3287435   5.1654172   2.1073157  16.0461819
   5.9185541   2.0754272  14.7336447  18.5079829  60.1577662  17.6429047
  19.3638675  59.7295629  17.6611866  18.7080626  61.0890530  17.5485195
  83.5463023  57.9419565  26.6181111  82.7700590  57.5982475  27.0603156
  83.5046732  57.5696993  25.7372451  18.8126493  31.3080239  58.4708595
  19.2188382  31.3957810  59.3331432  18.3929944  32.1543717  58.3165312
  10.3582883   9.3014824  55.2641821   9.4057685   9.3828499  55.3123045
  10.5055833   8.5397220  54.7035980  65.9740948   3.2235733  56.2768173
  66.5400123   2.9644251  57.0040083  65.1049971   3.3096927  56.6685867
  40.3663548   5.0675843   5.6697954  41.2106296   4.9199889   6.0959973
  39.7860881   4.4102070   6.0536923  13.7779355  15.0742102  36.2877035
  14.2901123  14.3282712  36.5999222  14.1251504  15.8229136  36.7725897
  81.2559479  41.8948650  56.9733953  81.9325026  42.2892570  56.4229774
  81.3892859  42.2883272  57.8357410  81.0418623  11.2466156  26.6914701
  81.7560177  11.0823941  27.3072982  80.4088038  10.5506265  26.8677306
  60.4937984  75.3289611  68.9789248  60.2665996  75.2747465  69.9071884
  60.1742902  76.1883373  68.7039375  73.7206745  18.0943620  47.4882603
  73.2510804  17.3212016  47.8012085  74.3381726  17.7538407  46.8409777
   3.4787813  12.5248027  35.9606862   4.1089213  12.5238740  36.6812086
   3.4426096  11.6125870  35.6729579  23.6208487  28.0668569  35.9903216
  23.1694865  28.8587880  35.6981778  24.3018675  27.9231000  35.3332210
  65.4141640  52.3527575  69.6634102  64.5324730  52.2315693  69.3110418
  65.9792256  51.8573523  69.0705299   3.8566285  25.9717798  61.1996078
   4.6654844  25.6205702  60.8272696   3.5352439  26.5850687  60.5386829
   4.0178663  15.9483564  30.3345466   3.8006309  16.8549871  30.5514836
   3.3580580  15.6915188  29.6904039  20.1655006  35.5500460  43.3238745
  20.4733014  35.5194068  42.4180317  20.9380770  35.7993007  43.8310528
  75.2872907   4.2872310  50.3310013  74.9361872   4.3079621  51.2212420
  74.5195233   4.3880233  49.7683239  51.5001693  49.7169676  65.8223654
  50.9753981  48.9834931  66.1430855  50.9463778  50.4856076  65.9592537
  29.9412608  21.8243957   3.3872670  30.0530672  20.9052396   3.6299288
  30.1478267  22.3098111   4.1859749  86.4198857  20.5395722  12.3247623
  86.2199538  21.0958195  13.0776560  85.6210759  20.0314474  12.1835399
  72.5215360  -0.1384523   7.7744831  72.1021053   0.6063817   7.3437514
  73.2800933  -0.3366496   7.2253527  33.2886481  45.4438496  13.1799769
  32.7198935  45.2198076  13.9165616  32.7749872  46.0620308  12.6601315
  21.6216350  25.0103068  53.0123520  21.8666291  24.0856075  53.0460978
  22.4545789  25.4762554  52.9393387   7.8251386  13.5402191  35.1733136
   8.6694926  13.8668537  35.4841328   7.1778297  14.0191603  35.6908441
  78.6453324  68.2528543  51.8452454  77.9754382  67.7662134  51.3649797
  79.3877208  68.2967520  51.2426138  71.9299733  52.3940945  48.8926840
  72.5389480  52.6229715  48.1905460  72.3672115  51.6877127  49.3681622
  38.7883766  10.9727932  68.2361697  38.2980151  10.7841994  69.0363005
  39.3664081  11.6975094  68.4747076  26.0391545  19.1616750  54.7186899
  25.2312326  19.4006741  55.1729727  25.9589124  19.5698178  53.8565922
  64.1696088  53.1627308  22.0390667  64.3984715  54.0675603  21.8266071
  63.5882418  52.8897546  21.3293327  12.6779377  24.4971800  39.2644930
  12.6564193  25.0673223  38.4959221  12.3612583  25.0480986  39.9803376
  82.0237031  38.0443001  54.7877598  82.1812605  37.6736021  53.9194345
  81.9006979  37.2828221  55.3545475  42.1826601  44.9465895  17.5183475
  41.4434814  44.8640633  16.9158244  42.9480505  45.0258017  16.9490159
  41.3665485  23.0919600  46.0177374  42.1898031  22.6930261  45.7360744
  41.5840673  24.0126610  46.1634350  38.5717034  16.6820598  59.7314358
  38.6483979  16.3773692  58.8272715  37.6294065  16.7679417  59.8761225
   7.4472320  51.5279198  52.8595877   7.7572310  50.6224251  52.8743887
   7.7082801  51.8564177  51.9992590  16.4137995  24.3427110  18.8679254
  15.8986390  23.7478113  18.3230066  15.7713890  24.9534607  19.2292094
  79.8566830  46.0438633  55.2627277  79.4321656  46.4812613  56.0007668
  79.7842424  45.1107502  55.4634380  10.5866361   1.0612035  30.2503705
  11.0940552   0.3260461  30.5943227  10.1870048   0.7224225  29.4492745
  48.5794879  81.6648820  23.8676739  49.3630392  81.1573123  23.6563659
  48.3483983  82.1012155  23.0476499   5.6718487  16.7672324  64.4808578
   5.7517457  16.0493112  65.1089001   5.6518251  17.5570631  65.0212288
  10.3918648  31.3898802  56.0799551  11.0368466  32.0966125  56.1075068
  10.5196619  30.9167933  56.9021988  43.6820889   7.0239371  46.7083025
  43.8475943   6.9615912  45.7675838  43.7192488   6.1191607  47.0185137
  32.9135735  81.5706594  60.1987123  32.7357561  81.2654513  59.3090725
  33.5584981  82.2692396  60.0878429  14.0355114  67.7132653   3.1977238
  14.4558410  67.1244358   2.5709595  13.5588626  67.1318005   3.7901224
  26.4019299  34.9072289  11.3767838  25.9061408  35.0874782  12.1754920
  26.3222528  35.7086229  10.8594322  36.5301561  24.8188901  64.2429972
  36.7047119  23.8821125  64.3336010  36.8447590  25.2014661  65.0620794
  15.2317286  43.8391161  32.3073387  14.7909546  43.1053877  31.8788624
  16.1646271  43.6587811  32.1915317  73.1473934  71.4561272  38.4596205
  72.8662872  70.5837917  38.7357473  73.5908496  71.8187761  39.2264748
  14.5495284  24.7802043  51.6915512  14.8871899  25.0797200  50.8474493
  14.8693395  23.8816261  51.7722416  27.4177442  38.2842194  62.3087625
  27.1050304  38.4266032  63.2021652  28.1330588  37.6551586  62.4027805
  15.5886944  75.6253100  52.4259710  14.8151453  75.4703970  52.9680586
  15.4817589  76.5212644  52.1064997  13.7874782  15.2505910  63.1451750
  13.8778186  15.5305910  64.0560389  13.4346044  16.0168672  62.6929235
  47.7406528  76.4539053  64.5714711  47.8686335  77.3999908  64.6405636
  47.1802762  76.3434794  63.8033454  37.8276549  41.1453792   6.0052265
  38.2159255  40.6937930   5.2558579  36.9272469  41.3264034   5.7355417
  19.1120434  19.2364776  53.1563759  18.4731436  18.9142263  52.5206137
  19.9444532  18.8593125  52.8716421  25.4432416  37.5773501  25.6504846
  25.4267192  38.4104323  25.1793861  26.3695860  37.4271703  25.8390713
   2.0870717  68.7652827  30.3585887   2.6679905  69.3532933  29.8758769
   2.1230395  69.0810657  31.2614846  52.8295962  77.7009723  66.9466257
  52.8238357  76.9573174  67.5492668  52.2234167  78.3304528  67.3371792
  10.2569878  30.2526140  14.6999717   9.3156344  30.0983262  14.7792196
  10.6320703  29.3819928  14.5674539  57.7381992  52.8934336  54.4397068
  56.9278979  52.5353289  54.0772057  57.4562811  53.4016228  55.2002954
  51.8654394  23.3362484  34.3978667  51.0814619  22.9912472  33.9705610
  52.1119785  24.0952229  33.8692784  21.1006951   3.1357566  48.2696724
  20.1606321   3.3083057  48.3220005  21.3718176   3.5348734  47.4429750
  36.7842817   5.0848782  38.7808585  36.6978574   6.0029006  39.0377593
  36.5407276   5.0712365  37.8552628   5.6405032  60.9905338  64.9588060
   5.5781239  60.8577728  64.0129089   4.9467555  60.4413795  65.3240061
  14.8076546  73.5431671  50.6980896  15.0536418  72.6697540  51.0028410
  15.3825271  74.1363192  51.1817503   7.3153871  55.9607553   9.8788273
   6.6470933  55.2968073  10.0485063   7.2454888  56.5652418  10.6177068
  55.5219698  -0.2855469  18.1791425  54.7959042   0.3345897  18.1121409
  56.1883545   0.1796154  18.6848986   3.4767157  22.2170162  34.5875549
   3.1282640  22.6362467  35.3743577   4.0974057  21.5672088  34.9172950
  27.9366589   5.5350268  11.5429592  28.3467269   5.2749240  12.3678362
  27.8701973   4.7222364  11.0417736  64.1920494  42.1537304  47.2809935
  64.0745949  42.1634865  48.2309103  65.0295543  41.7098045  47.1477652
  60.9842014  17.3881495  21.5520859  61.6143322  17.3343992  20.8335590
  60.2355719  16.8719363  21.2532449  81.7578729  13.5123086  11.3031614
  82.2196805  12.7416265  10.9729898  82.4351575  14.1848946  11.3749015
  19.5464861  17.2796404  43.1197834  20.3748178  17.5082088  42.6980543
  19.1895914  16.5742338  42.5800991  82.8157535  33.0548310  34.4456768
  83.6467659  33.1735039  33.9857125  83.0561223  33.0295610  35.3718615
  12.0932269  16.0948312  17.1477628  12.7865899  15.6949186  17.6726913
  12.5337923  16.3822615  16.3480639  80.0116467  50.2307749  52.2450304
  79.3590903  50.8640337  52.5440073  80.2446448  49.7375011  53.0315542
  11.1659932  33.4493470  58.4295177  11.8579376  33.8817096  57.9290104
  11.4086962  32.5234485  58.4232712  41.8686478  76.9908951  23.6357655
  41.5846996  76.2186264  24.1248573  42.3865883  76.6388630  22.9118599
  28.5082936  50.1398849  50.2412128  28.9993978  50.8656836  49.8561573
  29.1013241  49.7695923  50.8949900   0.3993996  72.3255588   8.6672854
  -0.3646080  72.0301003   9.1624928   0.6857069  71.5506864   8.1837237
  30.2027822  51.8887615  48.4212875  30.5400562  51.3595390  47.6985168
  30.7373452  52.6826477  48.4066391  37.2108269  31.7922449  18.1196535
  37.4311876  30.8686662  18.2408023  36.9764566  31.8631744  17.1943033
   1.6258478  10.3552568  46.6595888   0.9917920  10.6016850  47.3329973
   2.3745814  10.0143361  47.1488762  74.5710015  29.0661883  52.1756315
  75.2577483  28.6776853  51.6337109  73.9319729  29.4028592  51.5475178
  27.5509286  61.8298721  30.0927472  27.7579522  60.9178829  30.2968454
  26.6615462  61.8004417  29.7400928  31.3269854  50.2992582  15.5028307
  30.8645463  50.3287172  16.3403964  31.8694615  49.5124340  15.5562985
  33.7380314  55.2009487  28.4141231  34.4951892  55.4810715  28.9283943
  34.0316224  54.4059706  27.9690981  34.2105150  34.1126442  30.5645919
  33.6232400  33.3968186  30.3218365  34.6489048  33.8043022  31.3576698
  27.9849195  47.9910946  62.6724291  28.1580639  47.5001049  61.8691969
  27.0812607  48.2925320  62.5788021  14.4976223  81.0795403  15.7668459
  14.0419877  81.7970943  15.3266847  15.0942552  81.5131474  16.3769662
  30.0031829  65.4704428  46.7883444  29.4591641  66.1275959  46.3542652
  30.8501244  65.9005880  46.9062424  20.3999901  50.7983732  18.7346816
  20.1813293  51.1003685  17.8530812  20.2536631  51.5622187  19.2926800
  11.5414310  10.7132018  44.3221569  11.7400050  10.4503489  43.4234285
  12.2534585  11.3066661  44.5609999  26.3337827  41.8473434  50.2143383
  26.6270828  41.4279795  49.4054222  26.2505817  42.7735329  49.9874258
  42.0577955  36.7835212  46.4704561  42.1138430  37.4140596  47.1884489
  41.3388205  36.2020755  46.7178965  18.7854147  11.2768853  57.3707676
  18.4517968  12.1521866  57.5676918  19.2110574  11.3689625  56.5183735
  24.5391965  32.3504424  31.8657756  25.0023437  32.2069860  31.0404611
  24.8076296  33.2267666  32.1418786  42.2618389  75.4116726  49.5750046
  42.7612495  75.8508873  50.2634144  41.9708538  74.5925236  49.9757004
  41.1780167  55.5762911  26.0041261  40.7643414  54.7903204  25.6472564
  42.0465708  55.5933428  25.6021786  76.2063252  37.3703361  30.9741497
  76.4204716  36.6235089  31.5332770  75.2495980  37.4002123  30.9704518
  60.7135701  74.8200321  47.1110392  60.5944204  74.2917490  47.9003096
  60.1756429  75.5976725  47.2598553   4.1696852  66.7347336  63.6285543
   3.8870078  66.3984489  62.7781200   5.1226479  66.7916441  63.5588741
  42.8626299  39.6764183  45.2496529  43.4988403  39.9434590  44.5862055
  43.3517885  39.6960425  46.0721922  25.0343466  48.0996847  19.1233516
  25.2466846  49.0232372  19.2582572  25.4067492  47.8909731  18.2666206
  51.2515506  22.4706624   9.2209591  51.4968529  22.7954171  10.0873341
  51.8030497  22.9652712   8.6147894  45.2384488   1.1638879  17.7738762
  44.3832283   1.5882348  17.8428996  45.6258981   1.2630223  18.6435235
  25.5799508  25.3249145  53.9481831  25.6396627  25.2257895  54.8983622
  25.9383798  24.5088267  53.5992384  18.6538553  41.0472822  61.0793209
  18.9165163  41.3725901  61.9403791  19.3854380  40.4981804  60.7973528
  19.5994854  62.5816107  16.8652296  20.5438447  62.4764538  16.9808054
  19.4405711  63.5116863  17.0262635  80.7105886  53.4398937  54.1322947
  80.0869321  53.3009529  53.4195662  81.5663385  53.2710361  53.7380695
  16.3298309  52.8388643  34.9401593  15.4282534  53.0055475  34.6651936
  16.3744426  53.1789207  35.8338046  35.9727263  71.7343855  39.6153140
  36.8373704  71.8114948  39.2119837  35.6451941  72.6329994  39.6533799
   9.3518646  71.9544590  24.4732118   9.0778478  71.1634172  24.0091014
   8.5444696  72.3012711  24.8527718  57.4707633   0.3684399   1.6040529
  57.9533603   0.7783339   0.8861937  57.8428781  -0.5108859   1.6714873
  47.2722845   0.3600167  51.9153929  46.6442244   0.8882569  51.4227152
  47.8887491   0.0432252  51.2552023  13.3201659  54.8171806  20.1563787
  14.0724838  55.2605724  19.7643912  12.9053009  55.4858446  20.7013655
  22.6221728  68.4954834  63.5061598  21.8117213  68.2538033  63.9544773
  23.3137679  68.2944536  64.1366482  23.5804415  68.5838032  36.5011787
  23.2905531  69.4902086  36.3980675  22.9015326  68.0646992  36.0700822
  66.2362193  78.8181877  41.7616653  65.4556774  78.2863045  41.6064596
  66.9289100  78.1813955  41.9374657  20.2941751  43.3022785  42.6055241
  20.8354568  42.5995493  42.9652691  20.4874229  43.2974577  41.6680479
  61.7112183  68.0610847  57.0044231  61.0130214  67.8465557  56.3857698
  62.3797654  68.4912872  56.4713144  31.6802716  46.0808229  30.4230976
  31.1020136  45.7826853  29.7209811  31.3414979  46.9435120  30.6623197
  78.6303090  31.4343619  44.3640089  78.8584548  30.8779049  45.1086807
  79.3025213  32.1157885  44.3593931  43.4477377  81.7967606  36.7533731
  42.6012421  82.0501328  37.1214509  43.7298918  81.0556984  37.2895265
   2.5235757  31.9258118  50.4660463   3.1533563  32.1463633  51.1523151
   2.1036419  32.7583504  50.2497864  23.3508110  32.5405359  55.6219816
  23.7396479  33.2140732  55.0639629  22.8905582  31.9620633  55.0138950
  27.7251458  16.2285030  36.5393734  26.8721080  16.4659357  36.1758041
  27.5436902  16.0110867  37.4537230  71.8906586  71.4164709   8.6385168
  71.8084900  72.3695777   8.6058487  71.7093508  71.1296223   7.7434887
   8.3356174  11.9656159  55.5958973   7.3859127  12.0845057  55.6084357
   8.5277398  11.4869286  56.4022325  34.5898795  61.3290977  43.8112259
  34.8151684  61.1108589  44.7155714  35.4329085  61.3861609  43.3614731
  10.3864145  45.1287174  11.4730692  11.0638189  44.4530916  11.4432871
  10.8046579  45.8679342  11.9145000  10.2907896  47.2437668  42.7274227
  11.1054885  47.5434923  42.3241091   9.6018368  47.5813437  42.1550417
  21.5602994  80.1211262  22.4714637  21.7191839  79.6211910  23.2721210
  21.1204433  80.9173012  22.7695489  26.5312934  68.3553362  30.8910441
  25.6929970  68.5693455  30.4815435  27.1830010  68.8004589  30.3494024
  21.6379690  57.4038935  41.4408541  21.9679689  58.2487726  41.7466497
  21.8846726  56.7868328  42.1297693  49.8168850  59.6367264  55.7189894
  50.2620268  59.2670679  54.9564743  50.4051542  59.4540167  56.4516497
   2.5006464  61.3773155  45.4240179   1.6860849  61.2030458  44.9524736
   2.4771206  62.3172474  45.6034803  80.7467979  56.5714407   3.0073205
  79.9341970  56.6892862   2.5153607  81.0099887  55.6698561   2.8226393
  19.2894924  34.7971535  28.3052969  19.3644166  35.2368903  27.4583888
  18.3468926  34.7295213  28.4574938   7.1935844  55.7434464  48.2201672
   6.6417396  56.3441420  47.7193069   7.7866876  56.3141108  48.7088394
  20.3061130  79.7234299  68.5369791  20.8572218  79.7663309  67.7555253
  19.6234879  80.3769638  68.3848236  32.7294993  41.8249035  55.4269505
  31.8292665  41.8851519  55.7466125  32.6695156  41.2775517  54.6439838
  65.9819860  31.8820168  69.0385649  66.7627157  32.1988846  68.5843792
  66.2210400  31.8978287  69.9652983  83.4818908  57.3007870  57.7998066
  83.5929342  57.1710777  56.8579578  84.1562104  57.9381514  58.0349493
  79.1812664  23.2451129  33.9648652  79.5857751  23.0144954  33.1285524
  79.7937267  23.8623643  34.3650246  21.7423439  74.7022438  52.5821209
  21.0842681  74.3784475  53.1971979  22.5583863  74.2898369  52.8653669
   6.8086833  45.1285458  63.4012890   7.5065339  44.7804308  63.9563179
   6.3753718  45.7860851  63.9454508  33.2601357  69.5840693  61.1690187
  33.6956835  69.4071484  62.0028210  32.3505259  69.7632360  61.4072227
  76.0586798  20.6457496  23.4662771  75.4744791  20.3845859  24.1781306
  75.8604419  20.0341463  22.7571392  72.1031758  12.5707171   5.2938379
  71.7106494  12.8497861   4.4666304  71.5840241  13.0119250   5.9661831
  77.0227712  37.7337003  12.3730886  77.5306093  36.9270229  12.2858965
  77.6287269  38.4275007  12.1129131  24.7439623  41.3192987  30.5915785
  24.7033930  42.0937443  30.0304914  24.2740011  41.5739489  31.3856339
  14.2002320  62.3756552  38.1456470  14.2880380  61.9593525  39.0030932
  13.6811650  61.7574263  37.6312637  81.0982745  28.4612250  54.6820545
  81.5150242  28.3964109  55.5413294  81.5548372  27.8136730  54.1449690
  23.3466983  35.5687857  38.1669784  22.5740290  35.3091717  37.6651669
  23.9586043  34.8407817  38.0582952  12.2102654  47.1870947  50.7761049
  12.3966718  46.2646866  50.6010437  12.9759550  47.4988031  51.2585878
  42.8951931  67.6181269  39.7341657  42.2503901  67.4164343  39.0560961
  43.1307983  66.7662430  40.1016188  14.6857111  70.7506608  11.4893212
  15.2662901  70.5940841  10.7445778  13.8377122  70.4068683  11.2083687
  37.4473572  73.3475780  30.1498294  36.8195009  73.8212872  29.6042752
  37.6810026  73.9682198  30.8400798  78.6252486  33.8590741  36.6814160
  79.0721440  34.6418667  36.3593102  78.7032258  33.2274723  35.9664106
   5.2774209  25.9433150  53.7579346   5.3058296  26.2973881  52.8690815
   6.1318547  26.1616015  54.1301250  26.5363145  15.8712602  44.9251795
  25.6053996  16.0839570  44.9914312  26.5640044  14.9144614  44.9255276
  39.3585396  48.8072872  10.7907414  39.5904303  49.4198322  10.0927091
  39.4037008  49.3289995  11.5919983  17.3466301  48.7560940  33.9788342
  16.5824294  49.1729164  33.5807276  16.9997013  48.3052778  34.7486615
  16.4713192  23.1923461  37.2228479  15.8369315  22.5797462  36.8506861
  17.1805525  23.2222342  36.5807223  79.1903406  73.5255241  43.8721561
  78.4249251  73.9696503  44.2370176  79.0134197  72.5943947  44.0060711
   3.4217560  56.2263632  60.8242559   4.2830452  56.4638281  60.4807138
   3.4297687  55.2695513  60.8503199  38.6031580  41.9321966  62.5603771
  38.2704496  42.5380039  61.8981552  37.8816676  41.3212585  62.7101707
  31.0285807  19.1904783  39.8451209  31.5224314  18.9039850  39.0768337
  30.3987455  19.8244929  39.5022464  27.2395444  59.6787977  50.2986908
  27.8424215  60.4069090  50.1482725  26.3690734  60.0726604  50.2405357
  81.4000213  44.4806242  23.1974125  81.6005843  43.8512087  23.8901162
  82.0508196  44.3044662  22.5179553  26.1987662   7.2959071  40.9096670
  26.9836903   7.7688342  41.1861849  25.8962417   7.7671450  40.1333618
   1.1349372  40.8063269  65.6430674   0.5317866  40.3384972  65.0655031
   1.7840581  41.1885786  65.0525045   7.0703340  78.8471079  54.4817734
   7.3541737  78.3843422  53.6934137   7.6964104  79.5649242  54.5766354
  40.0960350  45.1158905  58.6900139  40.8254528  44.8856544  59.2654896
  40.4009008  45.8885622  58.2143402  34.4915271  61.9413090  39.2867231
  34.8156095  62.8419590  39.2924428  34.4491649  61.7078924  38.3593845
  51.3342953  16.0562563  66.8450356  50.9014750  16.5118992  66.1230326
  50.8240843  15.2549696  66.9627476  56.0151402  12.6687764  56.5495443
  56.2533657  13.3184861  57.2108746  55.0579469  12.6657247  56.5506792
  71.1332726  42.0448303  24.1484690  71.3619851  42.9739904  24.1725659
  71.9756662  41.5916443  24.1134048  46.9342232  57.0776796  30.8201766
  46.1536884  57.6142836  30.9582019  46.7860746  56.6521645  29.9756527
  46.8104601  63.3941221  23.6113572  47.2667217  62.7863455  24.1933084
  47.4698782  63.6481428  22.9657006  69.1523525  32.8931639   0.8746828
  70.0781664  33.1291173   0.9332098  68.7023696  33.5577510   1.3962855
  47.5878000  63.6051035  43.7512255  47.8596115  62.7897358  43.3298826
  47.5924206  64.2522669  43.0459690   5.5924886  44.9776030   7.9775268
   5.0150496  45.3545713   7.3136812   5.4348868  44.0349483   7.9246759
  17.8381693  50.4707575  70.3859043  17.1464503  50.1213598  70.9477568
  17.4576461  51.2597752  70.0000429  34.4664216  45.8544493  30.2039099
  34.9407196  45.5171442  29.4439769  33.6397290  46.1780453  29.8459983
   7.9071140  55.4825163  56.8630791   7.9766387  54.7775269  56.2193489
   7.0310372  55.3814840  57.2352505   4.1452256  54.8141766  45.4389095
   3.8708329  55.6769466  45.7496691   4.4088066  54.9595642  44.5302725
   2.8497639  38.9597034  33.2209635   2.8606308  39.8841286  33.4690547
   2.4760050  38.9525819  32.3397779  26.5094233  45.0768471  14.4689298
  26.5561128  44.6798229  15.3386569  27.4197221  45.1199341  14.1761327
  36.0009156   8.5385274  53.1923532  36.1918263   9.2574357  53.7948084
  35.1236789   8.2457017  53.4392166  40.2830458  50.1330900  23.6101747
  40.5397224  49.4058084  23.0432439  39.3353820  50.2034712  23.4952211
  84.3792706  60.0614166  43.0228281  83.8337424  60.4726696  42.3523808
  83.7933879  59.4465780  43.4643555  73.7268085  15.7375981  59.6834586
  73.1584389  15.5090929  60.4189692  73.1655354  15.6553055  58.9124642
  28.9692879  81.3396358  30.5087209  29.0546513  80.4335213  30.8052039
  28.2796526  81.7082977  31.0607338  59.0947485  15.9005797  63.0152178
  59.0251637  16.0182786  62.0678329  58.1879902  15.8782446  63.3210373
  16.2622130  45.9401321  38.6707664  15.4214263  46.3936949  38.6108470
  16.1010253  45.2157354  39.2753363  40.3991957  76.6883392   5.0674123
  40.7055516  75.7819564   5.0382793  40.2185948  76.8504752   5.9933317
  27.8700852  61.1860847  39.4860077  28.1551862  62.0821762  39.3072081
  27.0447755  61.2874317  39.9601650  22.3600626  47.4952316  33.3115768
  22.5337553  48.3054161  33.7908053  21.4571261  47.2720718  33.5377192
  12.2874522  30.0468993  26.1667013  12.3253083  30.1050901  27.1213818
  13.1457794  30.3530836  25.8738589  36.0539774  77.6483010   9.3592419
  36.5869437  77.1676682   8.7258591  35.6979529  76.9716428   9.9350990
  80.8735215  38.7645531   5.0420207  81.6311770  38.1959653   4.9045494
  80.9512448  39.0513349   5.9519362  62.7114176  77.5100374  48.2059622
  62.1766757  78.1921339  47.7997303  62.2310399  77.2690678  48.9980555
  10.2812064  22.9323030  57.6051617  10.8415949  23.2792640  56.9110346
  10.3290534  21.9821930  57.4991608  39.6303225  61.5860987  27.4654865
  40.4459333  61.8045282  27.9163718  38.9429903  61.8021870  28.0956531
  57.7381126   3.5788774  41.6075325  58.1128661   3.0725335  40.8868361
  56.7922298   3.4673451  41.5121603  13.1282723  38.9653182  42.1218014
  12.8878844  38.5172415  42.9327726  13.5586905  39.7698236  42.4111891
  17.0075345  77.1497822  31.8357253  16.6252017  77.4412966  32.6634169
  17.8571200  77.5889826  31.7964959  29.0953708  19.3886840  54.3313885
  28.6753941  18.9973044  53.5654402  28.6143708  20.2031112  54.4782877
  72.3603575   0.1646184  32.7649593  72.4304573  -0.6010295  32.1947837
  72.0797436   0.8713388  32.1835470   7.1853340  56.6618490   3.2146367
   6.3523960  56.8769264   2.7948880   7.5032079  55.8954430   2.7373427
  37.7216554  17.0558846  49.2611933  37.7849078  17.4044800  50.1504135
  36.8613815  17.3406994  48.9529085  35.0999761  42.0850277   8.7943584
  34.9035406  42.8007650   9.3988109  34.7933865  41.2989044   9.2462915
  19.3340409  52.0079327  64.2624950  18.7255394  51.3690042  63.8913822
  19.6344030  52.5177240  63.5100794   0.5186858  40.8864355  46.1623955
   1.2086479  40.4562044  46.6674519   0.7024845  41.8213654  46.2537909
  16.0216737  24.4734716  56.2835264  15.2213407  23.9986277  56.5076303
  15.8123577  25.3911662  56.4574623  29.4525647   8.6527848  34.1954041
  30.1446056   7.9919678  34.1702628  28.7055659   8.2336843  33.7681079
  61.4248705  74.1521168  44.6871233  61.1027002  74.3516350  45.5661154
  61.7759895  73.2643461  44.7565031  29.3410444  71.6798449  27.8965878
  28.5856605  72.2111940  27.6449990  29.5826221  71.2130308  27.0966125
  41.0438824  75.8988523  56.4388084  41.4573336  76.7611790  56.4798689
  40.8220434  75.7833529  55.5148602  62.4785773   2.9973172  47.7525616
  63.2520215   3.3336495  48.2052135  62.4857251   3.4408235  46.9043350
   3.7691109  11.8665837  27.7292752   2.9575532  12.3314332  27.9330373
   3.5925667  10.9580850  27.9735827  15.6591868  35.6906104  42.8896189
  16.1350346  36.2026572  43.5435390  15.4959679  36.3066483  42.1754122
  35.4616785  60.5113268  30.4593801  35.5384755  60.2999687  29.5289707
  36.2882471  60.2158833  30.8411288  36.7318559  66.2235689  25.6923985
  36.4968228  65.3298855  25.4427505  37.6876473  66.2422562  25.6439948
  73.4074585   6.2226628  69.2744303  74.3359320   6.4271211  69.3856478
  73.1376450   5.8662175  70.1208210  23.6248565  49.2359781  48.4670210
  23.1950092  49.7965431  49.1129541  24.4654727  49.6626949  48.3011723
  62.4687672  53.4830713  29.4678473  62.9436684  54.3139458  29.4492364
  62.4789619  53.1809711  28.5596275  26.0510063  44.3307209  11.3736427
  25.7289386  44.9329519  10.7029557  25.6339955  43.4947586  11.1650836
  68.3664894  67.5421286  16.4598370  68.7798643  67.6866627  15.6086838
  68.9238358  66.8934441  16.8897247  35.7873607  24.8813915  26.0621786
  36.2212992  25.5315018  26.6147041  36.5018129  24.4509721  25.5925727
  26.0228753  54.1430235   3.7650117  25.4147553  54.8380518   4.0167266
  25.5477977  53.3319712   3.9459115  53.3636999  66.0550404  31.5996408
  54.2902899  65.8149099  31.5994024  53.1723785  66.2724209  30.6872964
  76.9359922  65.2539682   1.3299501  76.1012936  65.6319618   1.6067719
  77.5865412  65.6695366   1.8959159  82.7231884  55.6796408  44.0577078
  82.0080185  55.0436497  44.0412283  83.4163666  55.2476978  44.5568752
  51.7520475  62.2808886  64.3543911  51.0872078  61.5924883  64.3724394
  51.5149784  62.8618288  65.0772572  33.0923676  61.1902905  17.8465080
  33.3502769  60.4508924  17.2960472  33.1329131  61.9484520  17.2636044
  31.7596984  65.5904150  35.6921959  32.2585583  66.2453222  36.1805344
  32.4257803  65.0445271  35.2743816  20.5053759  61.9041967  27.7750731
  19.6943963  61.5424633  27.4177361  20.7205558  61.3297176  28.5098529
  42.8186369  68.2696724  35.4769349  42.1178722  68.4344339  34.8460507
  42.5455809  67.4754906  35.9362245  68.7179415   0.4687547  24.9578810
  68.7248437   1.3970040  24.7243309  69.5723001   0.1439141  24.6736741
  36.9311762  77.0039940  28.0369020  37.0662785  77.5185537  28.8326478
  37.8020549  76.9346809  27.6457548  42.6987362  42.2928858  32.7591848
  42.7919245  42.3644829  33.7091446  43.4867525  41.8294477  32.4754763
  81.4975540   0.5547952  29.3671942  81.7245047  -0.1981498  29.9129009
  80.5474321   0.6343221  29.4519448  65.5858914   9.2213201  48.2585049
  65.0916545   8.4039258  48.3203936  65.0013368   9.8832082  48.6278582
  56.5408850  57.0566034   5.4644465  56.4347553  56.4316273   4.7472471
  57.3230076  56.7580462   5.9285367  37.5543809  80.2887058  57.1993971
  38.2390451  80.5653858  57.8084230  36.8292999  80.8914566  57.3642588
  80.5763666  10.5340146  57.5100279  81.0074703  11.3396501  57.2248459
  79.6634666  10.6437444  57.2439337  56.7246294  52.0520115  41.6700840
  56.7723608  52.2381020  40.7323599  56.4246178  52.8721237  42.0620489
  29.1650558  62.6426458  17.1508765  28.4609461  62.7618742  16.5135002
  29.3887162  61.7139530  17.0897746  54.6158266  58.3295441  45.5185413
  54.8403788  59.2572689  45.4469252  55.4473209  57.8959846  45.7105637
  50.8753729  67.3141623  51.9874763  51.4822435  67.3305893  51.2474298
  50.7863665  68.2318640  52.2446489  17.3412323  63.0661488  28.0337691
  18.1723237  63.3516884  28.4132242  16.6803908  63.3434868  28.6682796
  39.6100521  61.0555840  30.7865334  40.1404667  61.6092682  30.2135372
  40.1370478  60.2664137  30.9119081  71.1937952  65.1147604  53.6241961
  71.5406561  65.2954721  52.7505445  71.9553471  65.1734114  54.2011023
   2.6052420  60.8140384   1.1108841   2.2757619  61.6417383   0.7607617
   1.8218844  60.2786718   1.2372364  55.6243515  44.6243668  52.5155163
  55.8914328  44.8916483  53.3949804  55.9839296  45.2997494  51.9403744
  43.2920313  75.3957891  35.1060224  43.5326815  74.4696808  35.0806546
  43.7209654  75.7758045  34.3393159  16.2752318  75.7172728  43.8453197
  15.3442740  75.5911779  44.0287542  16.5045428  74.9938440  43.2619762
  59.5862293  59.4377184  26.3034916  59.4462442  58.9688396  25.4808211
  60.0315380  58.8049793  26.8670273  54.2921877  65.8687401  52.2375965
  55.0780725  66.1934376  52.6771307  53.6055136  65.9251690  52.9020691
  78.8859026   7.6112889  15.9980118  79.0768520   7.9066991  16.8882406
  78.8574450   6.6567468  16.0633326  34.4801593  71.9140291  55.3553867
  34.8230577  72.3948097  56.1087132  35.1206255  72.0684338  54.6609831
  43.5139751  67.5643969  46.7712927  42.7045822  67.9011965  47.1555805
  43.2730770  67.3262596  45.8760357  76.1697332   5.4565572   9.2145520
  75.9842388   5.4631471   8.2755196  77.0898096   5.7126187   9.2787486
  16.8859618   0.8827161  53.1800890  16.9906037   0.9097528  54.1311646
  16.8033021  -0.0485087  52.9746056  54.0396738  68.5778618  15.8414388
  54.2985010  68.9712572  16.6747940  54.7851133  68.7332773  15.2614415
  37.4098342  20.3746461  71.0005999  37.9426234  20.8786439  70.3854942
  36.5306609  20.7430600  70.9136677  83.3046818  34.5340991  28.5234642
  82.4425411  34.4323134  28.9266753  83.8769817  34.7959685  29.2446661
   6.7052555  45.7665777  53.7430525   7.5581717  46.1380100  53.5176563
   6.9002980  45.1030397  54.4047976  51.9559383  64.7889280  18.4598458
  52.3122597  63.9233780  18.6600661  51.8371296  65.2026606  19.3147981
  52.4336243  69.1210032  39.0226579  51.7412090  69.5685148  38.5363221
  53.2371044  69.5741272  38.7670660  51.4755535  79.1522694  47.2965097
  50.6780481  79.5247173  46.9203377  51.1648750  78.5804510  47.9984617
  47.0800781  64.3832731  35.3887010  46.7777395  63.6057091  34.9194312
  47.9004908  64.1109991  35.7998276  34.3867803  69.9269009  27.1139121
  33.9355969  70.4092884  26.4211154  34.0984225  69.0210676  27.0019054
  37.1603441  63.9762068  43.9610863  37.2423458  64.1164589  44.9043941
  37.0250392  63.0330038  43.8700438  45.5667925  76.7508698  28.6986351
  44.8033524  76.6226673  29.2616248  45.2746534  76.4702654  27.8313684
  69.8625795   4.0402173  30.0551510  70.3681223   4.7450589  29.6503544
  69.5127861   4.4268560  30.8578897  23.7679195  69.5877981  46.4606571
  23.4983325  69.4305897  47.3655558  23.7513971  68.7223577  46.0520315
  44.4318724  53.4793520  36.3643575  44.2096519  53.6902237  35.4575038
  44.2179680  52.5506353  36.4536238  75.8791113  71.8555546  48.5649681
  74.9868727  72.1965265  48.6272573  76.2819767  72.0843506  49.4025755
  67.2320883   0.7207345  39.9619985  67.8665893   1.3219022  39.5718241
  67.4486367   0.7159566  40.8943701  56.2484217  59.9389410  43.3326483
  56.3797760  58.9940071  43.2546711  57.0325947  60.2534437  43.7825298
  25.2772276   0.1271867  44.5130682  26.2038247   0.3111505  44.3587732
  25.1614551   0.2539109  45.4547501  42.4275637  25.4557467  55.6191349
  41.9954872  26.0934472  56.1873627  43.0908632  25.0489306  56.1765957
  28.3143115  23.7741494  58.1772661  28.6558127  23.0133390  58.6471367
  27.4525595  23.9278603  58.5645533   0.6583119  46.5370655  43.2314301
   0.9984208  46.2807512  42.3741913   0.3466607  45.7195234  43.6196709
   5.4703671  36.8280888   5.9318423   4.7853327  37.4341822   5.6496876
   5.3898036  36.0820937   5.3375101  56.9801140  65.5549908  46.7384005
  57.8806925  65.2899361  46.9253159  57.0686674  66.3484097  46.2103081
  13.2598162  66.0358953  26.5447974  13.5513389  65.4031897  27.2012520
  12.4665272  66.4200449  26.9180989  42.2150326  43.2783890   3.8554472
  41.9249344  42.3834372   3.6789992  42.5178432  43.6035585   3.0076247
  79.8827402   3.9265870  60.6327629  78.9291517   3.9984559  60.5911255
  80.1837723   4.8215913  60.7895374  85.5850391  51.8879271  48.5568571
  85.6456067  51.0432339  49.0030146  86.2227611  52.4424696  49.0063286
  70.3735678   6.3348531  45.4745579  69.6460478   6.8999242  45.7346296
  70.9815161   6.9199037  45.0225163  31.9466400  59.1653347  33.0517125
  32.6358342  59.0630436  32.3953748  31.2835550  58.5205126  32.8052330
  50.5083847  57.8286123  30.1939726  51.3128328  58.1207085  30.6226635
  49.8055220  58.1540155  30.7563972  30.7453465  76.7368984  25.1894069
  30.0908756  76.3216543  25.7510710  30.8743954  76.1159182  24.4724965
  71.6532898  53.4088659  17.5173318  72.2762632  52.8271198  17.0817804
  70.9050894  53.4477663  16.9215858  17.1653152  57.9183626  50.4209852
  17.0832300  57.9799509  49.4692993  17.5247228  57.0445538  50.5743313
  27.7096009  78.0143356  27.0343709  28.3169389  77.7329540  27.7186179
  27.4799204  78.9125299  27.2725415  46.7980699  17.8946637  67.7953291
  46.7591350  18.8443803  67.9082727  47.3372893  17.5886487  68.5245943
  43.4675503  28.1778169  25.0952649  44.3320942  28.3257937  25.4785466
  43.2903528  27.2507763  25.2547169  31.5559864  42.8850937   6.0548043
  31.2113070  43.4778261   5.3868985  30.9191966  42.9315901   6.7679447
  38.4298706  75.7055902   1.0673660  38.0634356  75.2452135   0.3123764
  39.2874885  75.3019905   1.2008877  33.8794327  58.1859636  22.6504636
  34.0615940  58.9847851  23.1453729  33.8391376  58.4732866  21.7382932
  55.4581706  68.1666754   8.5603680  55.1821677  69.0788768   8.6494936
  56.2700669  68.1117581   9.0643944  25.5880518  22.7094220  39.7100139
  25.7763941  22.7622079  40.6470156  25.1997755  23.5576581  39.4956040
   9.3410045  61.1501503  60.9744740   9.0159827  60.9492159  60.0968552
  10.2832937  61.2723446  60.8587551  45.4348469  68.5905600  39.5958471
  44.5537567  68.2268906  39.6833420  45.5680609  68.6709929  38.6513805
  45.0089788  63.3719444  38.1095028  44.3185711  63.8576937  38.5607386
  45.7457829  63.9818335  38.0722213  25.3532983  28.0643821  67.2927189
  24.8782635  28.5531616  66.6206598  25.1360894  27.1481085  67.1209908
  45.9776926  56.7809582  10.7179165  45.0420856  56.9790363  10.6774402
  46.3356447  57.1492195   9.9101514  53.1715107  50.8357716  46.9536448
  52.4483299  50.2089357  46.9715357  53.9525461  50.3048849  47.1097660
  55.5906248  67.9561424  36.5989995  56.3068295  67.6747179  37.1682835
  56.0120153  68.1489420  35.7614493  38.9737320  48.7417269  29.8005795
  39.0787005  49.5387220  30.3202057  38.2761192  48.2577753  30.2425742
  68.8278477   4.7543096  58.9126968  68.5045187   3.8740205  58.7208891
  68.6424200   4.8800801  59.8433018  71.1215067  78.9541292  59.0799379
  70.7436371  79.6840048  58.5893059  71.9165611  79.3152046  59.4720364
  47.2202539  70.9238052  38.0259919  46.2879658  70.7425070  37.9068184
  47.2940207  71.8731594  37.9284382  85.8559968  81.3191032  54.9046326
  84.9850304  80.9379101  55.0157213  86.3239469  80.6910038  54.3544149
  38.6078787  59.3422890  37.7887583  38.7435842  60.1656485  38.2576871
  37.8108668  59.4858313  37.2784638  52.2756140   7.7237939  39.0055084
  52.7514593   7.9012536  38.1941438  52.8939859   7.2281217  39.5423150
  44.8487191  13.0347203  32.9951692  45.2953557  13.1041001  33.8389301
  45.5502049  13.0976914  32.3469543  86.8321514  64.3398190  55.2314138
  86.9964981  64.5154428  54.3049288  86.0062122  64.7865915  55.4170370
  34.7229743  47.1378803  26.8860316  35.3815389  46.6776085  27.4062943
  33.9692664  46.5478945  26.8774819  53.1903505  71.7695045  22.3653841
  52.7824688  70.9037495  22.3836589  53.2968521  72.0035982  23.2873869
  52.8030109  74.3967581  25.6019950  52.9656124  75.3010941  25.3337193
  53.4513617  73.8836098  25.1197600  56.8654108  50.3090572  51.0637617
  57.2460413  50.8370686  50.3619337  56.5227413  50.9499311  51.6867352
  28.3349419  78.3603954  35.0038981  27.5272298  77.9062271  35.2438259
  29.0104699  77.6832438  35.0406933  60.1956177  61.2328148  70.7290840
  59.3273258  61.3452291  71.1159372  60.1197243  60.4413557  70.1961040
  56.3438940  72.9742575  62.3309565  56.7414999  73.8390970  62.2300339
  55.4014349  73.1412983  62.3209953  82.1553787  38.2798550  10.2642788
  82.3785337  39.0769169   9.7835220  82.6839956  37.5960801   9.8528828
  20.7562852  66.0369015  48.9025640  20.5303526  65.1731682  48.5573864
  21.4666414  66.3420582  48.3382034  30.5831599  77.2920513   4.9017015
  29.8205566  76.7547703   4.6872273  31.1037207  76.7450571   5.4899597
  27.9065037  74.9551344  21.0042691  28.1134129  75.8801651  21.1374331
  27.0995402  74.8164225  21.5000534  57.5838709  57.8818035  46.0793591
  58.1796026  58.4659433  45.6101990  57.6584196  58.1490707  46.9954586
  40.4487467  69.1264725  45.3633595  40.4545116  68.6958265  44.5085287
  41.2775898  68.8688374  45.7669401  53.2002497  52.6925087  49.0292931
  53.3722925  53.5401869  48.6193275  52.9714584  52.1159172  48.3002996
  66.2520997  23.7592458  54.6198463  66.5900700  24.5125627  54.1355753
  66.7744772  23.7359666  55.4216003  36.2801013  35.5416892   1.2705053
  36.4613518  36.4246533   1.5926136  35.5090365  35.2606080   1.7631401
   2.8646550  45.9455845   0.7424559   3.7212262  46.3691208   0.7984461
   2.4671325  46.3126156  -0.0471578  42.9573488  81.8974686  48.1872606
  43.3712053  81.1926174  47.6891279  42.4935436  81.4501572  48.8951015
  72.6036350  12.1659707  36.4773464  72.0538895  11.4420079  36.7771626
  72.1505014  12.9525136  36.7810655  65.8736849  68.9087820  27.3397541
  65.4826164  69.7722912  27.2069025  66.8174028  69.0660954  27.3099828
  50.3984213  78.3482170  61.6621828  50.0352240  77.6656055  62.2264147
  50.7830334  78.9808893  62.2688389  16.6282885   1.9509458  38.6815429
  16.1686175   1.4264535  38.0259228  17.0277970   1.3069867  39.2662978
  73.7113333  76.4302921  24.5326185  74.4839954  76.9663334  24.7111702
  74.0300322  75.7348680  23.9572525  54.8929453  70.1445341  37.8127742
  55.1136494  69.4190454  37.2286654  55.1970196  70.9254503  37.3502326
  20.4925006  21.3572072  41.9589901  19.8874228  21.6291188  41.2689304
  20.1403039  21.7532109  42.7560902  53.1763444  46.8518613  18.4913696
  53.5721383  47.7074597  18.6572994  53.6380944  46.5195916  17.7215542
  78.0808966   7.4597692  11.4987350  78.1206696   7.7760171  12.4013054
  78.2235758   8.2411813  10.9646368  78.3592884   6.7075872  37.3410773
  79.1884748   6.5154885  37.7790022  78.5613625   7.4367284  36.7547798
  39.6710829  24.9769925  37.2503042  39.0295283  25.3510999  36.6464162
  39.5887999  25.5049848  38.0444574   4.5673554   2.0742082  39.5293045
   5.3946440   2.4796819  39.2696738   4.3754475   2.4503755  40.3883171
  43.9048243  61.9599962  30.4671240  43.8741636  62.7182388  31.0505247
  44.7376299  61.5344429  30.6710029  51.2177658  62.7422714  27.5681400
  50.8834457  63.5337830  27.9900002  50.9632397  62.0314932  28.1565666
  65.6789271  24.1301393  43.4490442  64.8696773  24.6263932  43.3262396
  65.9304444  23.8597726  42.5659418  75.3076506  72.2911835  26.5295148
  75.5148458  71.5202188  27.0576334  74.6583939  72.7681541  27.0464230
  70.9216404  78.2983589  41.9859791  71.6064692  77.8864908  41.4591026
  71.3913584  78.7032557  42.7151299  51.5892839  62.8439665  61.6534424
  52.0522451  62.6969528  60.8286524  52.1532154  62.4488878  62.3183680
  55.9449658  80.1007149  39.6198811  56.7541203  80.2404759  39.1279759
  56.2368950  79.8999188  40.5090965  59.7299814  64.7593260  45.1280594
  60.6169462  65.1125574  45.0591087  59.1892433  65.3703976  44.6276331
  83.2618467  19.2027330   6.7704117  82.5795071  19.6398019   6.2608856
  82.8520243  18.3929299   7.0745504  20.5515847  55.5061314   7.6905884
  19.6548590  55.2965329   7.4294581  21.0850415  55.2585576   6.9353594
  27.3284285   8.0885934  29.4437194  27.9482405   8.0122041  30.1691318
  26.6174071   8.6266278  29.7918534  13.6625140  12.7667665  44.2283106
  14.5590155  12.7605390  43.8929272  13.5188429  13.6698960  44.5110607
  21.2057965   5.5202149  53.5801601  20.6893771   4.9044465  54.1001272
  20.5937522   6.2239598  53.3647823  56.5988636  73.1467009  15.0159371
  56.5265131  73.0234385  14.0694690  56.0574102  73.9143848  15.1995766
  10.4042995  68.4206915  14.9355233  10.4712129  69.3327093  14.6527231
  11.2006617  68.0074501  14.6019471  23.7986598  35.3294585   2.3542942
  23.4624753  36.1497328   2.7153362  23.9934525  34.7919057   3.1219687
  38.7969804  65.5414820  37.2185898  37.9353595  65.7095003  36.8369961
  39.2721343  65.0659847  36.5371466  66.6297054  52.1469641  30.5873418
  66.8496799  52.3393583  29.6758437  66.7728376  52.9737711  31.0479236
  31.3450505   3.3470868  49.9208879  30.5879859   3.3203267  50.5060148
  31.6535957   4.2518758  49.9696684  54.9718523  73.0113459  52.0385885
  55.8901310  72.7723217  52.1645737  54.9947357  73.9427853  51.8192053
  24.7407668   5.0536489  64.9874687  24.4543498   5.1981782  65.8893061
  24.5530741   4.1297769  64.8217106  32.9767299  74.5005751  29.1342521
  33.6848640  75.0437069  28.7881517  32.6373100  74.0342188  28.3703566
  35.9881911  59.9559662  16.3740124  36.0291180  59.0855096  16.7700733
  35.8741412  59.7883389  15.4385342  51.6682005  77.7074671  56.4837694
  51.9879532  77.9442930  57.3543453  50.7213211  77.6187706  56.5923309
  81.5177099  19.2474984   4.4527465  81.2637321  18.3416032   4.2764390
  81.9478075  19.5366143   3.6479741  74.9516269  32.1161053  16.9214405
  74.7240540  33.0382655  16.8028320  74.1094824  31.6729090  17.0244087
  13.1318748  61.7474270  21.3505721  13.8219893  62.0469999  21.9423747
  12.4253619  62.3829556  21.4653540  26.5508923  35.0640509   3.6541905
  25.7692322  34.7359727   4.0987219  26.2679848  35.8814643   3.2442774
  18.1970835  57.9951191  28.4953284  18.0162680  58.7987137  28.0077124
  17.6607823  58.0681992  29.2848039   6.2264817  15.5024861  17.8820729
   7.1684163  15.6347703  17.7748668   5.8261292  16.1492585  17.3010099
  60.4129601  52.9478550  41.9905472  61.2858915  53.1403208  42.3328590
  59.8973560  53.7273502  42.1973705  31.8095002  35.7126782   1.2343992
  31.3715443  36.4835856   1.5951218  31.1000666  35.0947116   1.0581793
   1.5646022   1.8464040  63.2762003   0.9286921   1.3438844  63.7854385
   2.1065562   2.2828721  63.9334774  63.8347673  63.4855509  47.6176548
  64.4427776  63.7110853  46.9136047  63.2396221  64.2334843  47.6689243
  37.4655008  62.6366520  35.5243611  36.7584038  62.1653605  35.0837588
  37.5356555  62.2164774  36.3815451  19.1646378   2.8154038  35.8482885
  19.2663853   3.7005090  35.4983282  19.8036139   2.2917699  35.3648138
  70.5790607  12.0338296  22.3706388  70.2715532  12.7492379  21.8139911
  71.2189667  12.4421357  22.9537630  52.1124784  13.7358903  50.2552080
  51.1572043  13.7860440  50.2210188  52.3043625  13.4219693  51.1388731
  54.2144823  51.6525364  44.2893410  54.9807119  51.0998535  44.1355133
  53.8092852  51.2867498  45.0756311  22.3271506  10.6527947  33.3048797
  21.4851754  11.1008309  33.2237244  22.4620001  10.5654382  34.2484999
  45.4779243  56.9253206  47.1703959  45.9594727  56.5150976  46.4520216
  45.3418303  57.8280926  46.8827868  51.4727259  65.9389257  14.7382808
  51.9563198  65.1804495  15.0655210  52.1218443  66.6417170  14.7073483
  76.1634207  42.5350046  24.8971033  76.3887739  43.4117651  25.2081370
  75.7660198  42.1066952  25.6552935  57.3844004  74.5876312  26.1104059
  57.8749752  74.6384716  25.2900505  58.0534935  74.4538069  26.7816973
  51.3677073  68.0586720  42.7702332  51.7625284  67.2053242  42.5909376
  51.6635990  68.2786369  43.6535740  46.5926695  72.1528006  27.8177476
  46.4314890  71.3046741  27.4043036  47.3930025  72.0229959  28.3265233
  54.5850325  54.9962950  38.8710690  55.1794910  54.2516899  38.7793541
  53.7128782  54.6239233  38.7410140   0.9278672   7.4088430  39.3347120
   1.2591021   6.8841504  40.0635576   0.2783005   7.9884576  39.7326279
  29.7576094  70.3828478  63.0310869  29.7726488  71.0477495  62.3426723
  28.8371849  70.3240299  63.2871962  16.8785470   9.0193318  37.5193262
  17.3402398   8.3070611  37.9617572  17.3902123   9.1804265  36.7265582
  83.4002972  64.9370241  18.9099884  83.2904339  64.6526814  18.0026245
  83.3407593  64.1307974  19.4225168  74.8625271  22.3072862  46.6258430
  74.4421141  22.7004861  47.3906183  75.2997963  21.5273332  46.9674492
  65.5464117  24.6707105  59.4894886  65.4683821  25.2107286  58.7030268
  66.4171497  24.8716020  59.8325443   3.5592787   3.6439466  60.2511406
   3.4307521   4.5361470  60.5731392   4.4955437   3.4807157  60.3651333
  64.1995589  17.2744035  55.5181456  63.8770167  18.1753396  55.5408001
  64.2684476  17.0680379  54.5860004  38.4165978  65.2333736  66.0573816
  39.3729258  65.2218580  66.0181856  38.1424284  64.5867300  65.4070616
  60.2247810  42.9255819  62.9072094  60.2653885  42.5464535  62.0292330
  59.6860456  43.7101030  62.8046465   0.3319447   3.4101056  55.4402304
   0.8358472   2.6308488  55.6748915   0.1508849   3.8390683  56.2765551
  48.0465889  69.0540886  30.5911160  47.6341438  68.8408470  29.7540712
  48.7105656  68.3750916  30.7108188  28.8516974  73.7842131  35.2751350
  29.0503693  72.8530979  35.1762199  27.8968167  73.8316536  35.2284312
  56.0632372  53.7900448  62.8260946  55.8089828  52.8689194  62.8819132
  55.9252644  54.0213633  61.9075727  51.1077881  70.8602619  45.9893560
  51.7226362  71.5936756  46.0066748  50.4207039  71.1090803  46.6076136
  53.7389421  78.0401087  38.9538407  53.2345247  78.7089062  38.4906960
  54.5761061  78.4622526  39.1466713   7.6801961   0.8739423  41.5825796
   7.0905869   1.4626073  42.0538187   8.4429877   1.4139794  41.3758564
  14.5412295  48.0649137  13.0806994  14.8104947  47.2706746  13.5421181
  15.2361624  48.2171105  12.4402797  43.5205460  77.8204060  36.8432999
  43.9393473  78.1479168  36.0473275  43.5771656  76.8677664  36.7691422
  17.5528157  76.6449642  48.5425472  16.6288829  76.8643618  48.6627340
  17.5981605  76.2736034  47.6614904  44.4400692  74.1671181   4.3048385
  44.7233343  73.7682009   5.1275522  44.7913647  75.0569534   4.3366823
  34.2538476  49.1789770  63.7432289  34.9050093  48.8520479  63.1224728
  33.7057853  48.4187698  63.9380217  80.3216879   3.5639714  32.8010869
  79.6143810   3.5299062  33.4451318  81.0487835   3.1027650  33.2192397
  48.9689557  17.6877927   6.5042776  48.0273358  17.7177857   6.3349110
  49.1039316  18.3112763   7.2179163  66.6669361   5.9544515  45.4555941
  67.0203201   6.2468576  44.6154404  66.4047424   6.7612313  45.8989763
  69.9285316  39.6332574  64.2131472  70.1998758  40.3953457  64.7248411
  69.0139866  39.8074317  63.9906693  28.3949217  40.8534596   6.9995512
  28.8360295  41.0630677   6.1763109  28.5392556  39.9144242   7.1162762
  64.2092419  65.1993608  38.7730837  63.4301662  65.6168985  39.1404271
  63.8674498  64.5790100  38.1292129  85.7512276  32.3645448  24.0209651
  85.8226959  32.6162385  23.1002188  86.2382500  31.5428495  24.0831447
  51.8420506  42.2094488  17.1607232  51.0361910  41.7038727  17.2665930
  52.3377132  42.0406532  17.9620099  38.3002090  70.2325392  49.8198032
  39.0049505  70.0290155  49.2048645  37.7411532  70.8496284  49.3476915
  36.0550308  78.8470459  14.8202240  36.0143757  79.8028135  14.8533082
  36.0175490  78.5738516  15.7368433  45.9130907  64.0195799  50.1545238
  45.5640793  63.9659452  51.0442114  45.7231522  64.9155521  49.8763371
  32.8755641  70.7777596  50.8442307  32.7163482  70.5541849  51.7612362
  33.6848307  71.2887335  50.8593082  43.4557915  78.5031986  25.9417796
  43.4374285  77.5462866  25.9562802  43.9819813  78.7210274  25.1724243
  78.4742594  32.1900773  34.4310045  77.7234364  32.4387455  33.8918805
  78.5259485  31.2381339  34.3451881  66.9291322   8.8370370  40.2993584
  66.3860409   8.2476090  40.8226776  67.6738207   8.2998227  40.0290298
  60.2072041   2.6907300  62.6398277  59.8302237   3.4053849  62.1266222
  59.8040359   1.8999623  62.2815323  50.7245350  70.0759172  51.3289785
  51.4583254  70.6898546  51.2995148  50.8593702  69.5050335  50.5725765
  59.0192000   3.8286351  19.8684156  59.4735472   4.6437978  20.0812864
  59.6067755   3.3783578  19.2615926  54.7161691  14.9037885  14.7589040
  55.2514808  15.6777619  14.5838642  53.8176553  15.1931428  14.6002185
  75.9572077  37.6852846  65.7358217  75.0565863  37.6769996  65.4117107
  76.0839558  38.5739112  66.0682535  52.8749323  41.2983036  69.4959021
  52.8824806  42.2406483  69.6637344  52.3386765  41.1994219  68.7092113
  56.2141609  62.6048803  43.0142355  57.1561575  62.5599146  42.8503466
  55.9474611  61.6929483  43.1303453  69.0427780  71.0427189  12.3586822
  68.9523315  71.9938707  12.4166429  69.9863148  70.8885431  12.4056256
  38.9243579  58.7556267  34.1007686  39.7310662  58.2405472  34.1128969
  38.3202481  58.2677603  34.6604729  78.5742037   0.6225347  28.9351845
  78.0871193  -0.1039077  29.3241143  78.7226812   0.3532552  28.0287194
  20.1276534  11.7766236  46.5664864  19.6659606  11.0530042  46.9900846
  20.9272139  11.8847894  47.0814943  63.2537270  78.6369419  56.5426683
  63.9991474  79.2087507  56.7260027  62.9151201  78.9467430  55.7026672
  71.1253683  18.1529759  52.2130680  70.4531042  17.6186608  51.7902184
  70.8354275  19.0549230  52.0765018   9.4506972   1.0889768  57.1326017
  10.4070227   1.0855245  57.0918369   9.1944735   1.8912267  56.6776657
  44.9631643  75.6961155  53.4360647  45.9145164  75.6185579  53.5077810
  44.6550894  75.7110977  54.3422079  83.8891499   1.2122964  32.5996017
  84.0663282   2.0403146  33.0459499  83.0398266   0.9329080  32.9413915
  17.3284428  36.2094831  65.2504969  16.6491406  36.8716191  65.1226139
  16.8456404  35.4018449  65.4261589  48.2714701  57.1656227  48.2506561
  47.5103855  57.1547985  47.6702547  48.1942654  57.9896545  48.7315321
  84.4278596  50.8575964  33.6776280  84.2564894  51.7361832  33.3385873
  85.3822715  50.8002472  33.7228036  42.6032385  53.6934159   1.1545147
  42.1834550  52.8391812   1.2559380  42.8601679  53.7261269   0.2330221
  78.8927977   0.8401822  49.2055559  78.8262884   1.0677480  48.2781839
  78.4198229   1.5385865  49.6580696  68.5772753  74.9103498  45.0378513
  68.3633518  74.3335247  44.3045425  69.2905521  75.4587030  44.7110748
  84.1812126  10.2946328  61.8808842  83.9570276  10.5824803  60.9959459
  83.5776321   9.5731877  62.0581961  36.5620503  38.3256743   2.0637001
  35.8700404  38.8160107   1.6199412  37.3262915  38.4225199   1.4955534
  78.2838909  11.3525914  60.1676226  79.0508596  11.8764733  60.3990221
  78.3835928  11.1827611  59.2309046  50.2708817  78.8162327  34.6243072
  49.5796013  78.3821249  35.1242161  50.2632141  79.7199059  34.9398184
  70.8473293   2.7696656  26.0207772  70.8998243   1.9984960  25.4561830
  70.1410000   2.5692510  26.6349125  43.0061817  61.2091780  26.0655284
  42.6976919  61.8665838  26.6891313  43.6957359  61.6526508  25.5714869
  59.5143630   2.0973989   3.3916010  59.5175339   1.5423795   4.1714586
  59.1598345   1.5377065   2.7007403   2.9756968  11.5690183  57.3818493
   2.2927945  11.7797135  58.0186224   3.0715172  12.3662328  56.8607950
  67.7990190   5.5515431  10.6517768  67.9286758   5.5411386  11.6000986
  67.3148601   6.3602590  10.4850852  60.7031536  78.9367676  20.8943939
  60.9790707  79.7927380  20.5666447  61.2727976  78.3129597  20.4442763
  85.8767597  26.4182042  22.2012734  85.3587286  27.0219564  22.7335930
  86.5783731  26.1269902  22.7836537  17.6946204  32.3236131  50.9062624
  18.3260625  31.9227170  51.5035868  16.8641799  31.8944882  51.1123180
  47.9253292  60.0031233  53.6747360  48.1202936  60.8521843  53.2780981
  48.5074043  59.9536800  54.4330072  77.5359289   2.6790570  50.7573414
  76.8410341   3.2021283  50.3576469  77.1836702   2.4244737  51.6101789
  23.5326862  80.7162666  60.4433060  23.7276936  80.0738239  61.1255598
  24.3231535  81.2531185  60.3868580  29.7601628  63.3827686  39.6697283
  30.6755400  63.6487150  39.7568488  29.2683458  64.2033720  39.7007680
  59.1920552  26.5084908  17.1527447  58.4395871  26.2706683  16.6110291
  58.8496003  27.1585200  17.7662720  71.6822863  65.8276463  30.2459073
  71.1247730  66.3806152  30.7932949  71.2207317  64.9901724  30.2029991
   8.3548889  35.5956719   5.0953879   8.3627543  35.9743188   4.2163004
   8.7460694  36.2704108   5.6503119  56.2155048   2.4124383  28.8532138
  55.7153313   1.7869138  28.3290291  57.1307485   2.1897935  28.6829519
  45.6848145  69.2717361  62.3600960  46.0837650  68.4249115  62.5599909
  44.7426224  69.1053963  62.3889351   7.5152962  18.7827825  32.5570726
   7.5262396  18.0622720  31.9270134   8.3816092  19.1823434  32.4790740
  83.8708822   3.7566709  42.4569988  83.2224600   3.1833791  42.8658009
  84.2833797   3.2119893  41.7866325  48.7278986  73.0705166  60.7479382
  47.8963661  72.6329470  60.9304667  48.5464478  73.9992857  60.8917809
   9.7455781   6.9538068  35.3548121  10.6452696   6.9312810  35.6808162
   9.2340510   6.5122556  36.0327578  43.7460661  57.2819614  32.7563047
  43.0455446  57.8233719  33.1201386  44.0499544  57.7671957  31.9892120
  35.6895733  74.3440151  54.3049097  36.0328674  75.1215172  53.8646030
  34.9180603  74.6571779  54.7770643  19.0806899  32.3825524   8.5708965
  18.2702622  32.4159215   9.0791525  19.7265610  32.8263734   9.1205372
  19.9653339  78.5477686  60.3556347  19.6342933  77.9513311  59.6841383
  19.2003274  79.0584469  60.6205940   4.8651192  65.6907701  45.4601812
   5.3292161  65.0796509  46.0323524   4.1516703  65.1738119  45.0860405
  23.4672904  71.4396954  44.5301437  23.6555338  70.7103825  45.1208162
  24.0181160  71.2761879  43.7645769   4.1629562  16.7283080  12.7038826
   4.2260179  17.2598193  11.9103111   4.4356594  17.3162816  13.4082569
  81.2958614   3.6889695  69.8476315  81.6813175   4.5335912  70.0805807
  82.0362513   3.0823754  69.8377228  15.6538472  28.4914658  10.3508915
  14.8683533  28.1627152   9.9136795  16.2616858  28.6854622   9.6373619
  47.8018078  45.0657628  13.8585915  47.3071561  45.5126641  14.5454849
  47.8112301  45.6849930  13.1287254   6.3680546   3.0645703  36.6198111
   5.9158414   3.7259339  37.1435761   5.8775036   3.0329560  35.7984757
  73.2707453  59.5677090  65.5004930  72.7002192  59.2664003  66.2075567
  73.5296011  60.4514456  65.7617140  60.0826836  29.5771027  65.5189085
  59.8715115  29.3076897  66.4128113  59.3065214  30.0523210  65.2223063
  26.1971610  28.4317731  63.6959028  26.6843264  27.8345632  64.2635727
  26.7572348  28.5421800  62.9275513  68.6553335  67.5637913  38.9088464
  69.1835308  66.8582678  38.5353780  68.3653879  68.0725050  38.1516337
  83.2046263   9.2880200  25.7590961  82.3305599   9.3506383  25.3739691
  83.4395067   8.3642625  25.6711125  51.0509872  49.0292120  46.8150806
  50.6999111  48.5503054  46.0643339  50.2779341  49.3738031  47.2621536
  64.9728823  60.5486679  46.8811083  65.6363297  60.7531929  46.2221432
  64.5454788  61.3865232  47.0587492  62.7141476  51.9466972  69.9018908
  62.7907038  51.2671852  69.2320919  63.1137085  51.5607452  70.6813955
  65.7970953  75.8562899  24.3818998  65.4516935  76.6874075  24.0560532
  66.0984802  76.0534000  25.2687716  68.0026595  20.6022786  67.8474855
  67.6994173  20.7814263  68.7375307  67.2763817  20.8761167  67.2873402
  65.5921809  19.5793962  63.7231064  66.2350695  20.2753209  63.8595438
  65.5370037  19.4874143  62.7719355   1.4908085  32.6239655  14.5908608
   1.4240131  32.8333447  15.5224957   1.9667301  31.7938540  14.5654644
  47.4953175  69.5612717  50.0565243  47.9796267  69.1371012  49.3481731
  46.7439461  69.9666595  49.6236992  52.6316261  59.2206287  66.0944700
  53.3346272  59.0915108  65.4577971  52.6397800  58.4240246  66.6251183
  55.6172466  50.6152678  16.8041301  55.7198906  51.4011145  16.2673414
  56.4965773  50.4361868  17.1371996   9.8372643  33.3160829  12.1743393
   9.8458331  33.8834333  11.4034510  10.7601493  33.1242227  12.3407888
  29.1606181   1.5753984  23.3268476  29.4197123   2.4055623  22.9269242
  28.2282298   1.6812276  23.5157204  81.9428349  48.8512135  48.8127851
  82.3509121  49.1604853  48.0040503  82.0737076  49.5661211  49.4356918
  85.5054037  13.9096784  24.6567225  85.0963203  13.0442952  24.6574092
  86.4389555  13.7332009  24.5402336  36.0327482  65.6609344  47.6260805
  36.1891937  66.4617395  47.1256113  36.6814184  65.0403452  47.2939348
  23.0106108  11.1497449  54.9094582  22.9479354  10.6241464  55.7069826
  22.2451155  11.7236089  54.9400282  47.7270889  47.4008703  53.2685184
  47.2504282  46.7158699  53.7373447  48.5350370  46.9761181  52.9803467
   3.1349134  41.3962746  46.5200138   3.6342570  40.9362888  45.8452511
   3.5392275  42.2625399  46.5684509  37.4708955   7.0901631  48.0424356
  37.2281544   6.3182401  47.5311279  37.1894292   6.8850946  48.9340353
  11.8507331  79.7928570  10.6088509  11.0418885  80.0717639  10.1796498
  11.7451661  80.0667547  11.5199341  23.1326947  41.6207478   9.3915238
  22.3228392  41.7825863   8.9076056  23.8047919  42.0903084   8.8975300
  55.8800554  71.6152430  30.8322859  55.8987713  72.3651505  30.2377057
  55.6318188  71.9868660  31.6787553  52.3052454  65.9284353  53.9616680
  51.8896818  66.2739420  53.1716251  51.5927505  65.5071402  54.4423866
  58.5673046  58.3730888  58.3305073  59.1613388  58.8368130  58.9206934
  58.0797338  59.0673876  57.8872728  80.2458096  60.5795288  48.2425547
  79.4926262  60.4198360  48.8112736  80.7439899  61.2628174  48.6910677
  66.5404415  75.6482267  55.2248335  65.6105137  75.6589270  55.4514313
  66.9200611  74.9858952  55.8022690  80.8237990  23.8115142  20.5744614
  81.3662251  23.0673192  20.3133549  80.7150611  24.3218730  19.7720017
  33.7055282   0.1618432   9.3427056  32.8318213   0.1060437   9.7296876
  33.6461411   0.8870076   8.7207431  42.1924214  36.4594983  53.6345863
  41.9975261  37.0725965  52.9258108  41.4855759  36.5913056  54.2664289
  56.8802977  76.3724422  67.2599316  57.5307894  75.8408165  66.8011713
  56.8038130  77.1665478  66.7309952  80.4217998   3.6183023  52.2746992
  79.6130363   3.4178208  52.7458048  81.0595934   2.9915761  52.6162672
  86.7854214  69.6736479  24.0940166  86.4110470  68.8382387  24.3736005
  86.5538597  70.2856493  24.7926307  76.1196566  74.1715860  39.7591043
  75.6503391  74.5015621  40.5253220  75.4926395  74.2535830  39.0405226
  53.0825314  39.4266961   1.7274536  52.6816258  39.5312569   0.8645643
  53.8939557  38.9479849   1.5581383  78.7385313  21.5962647  45.0161171
  79.5209686  22.1424245  45.0918484  78.9193193  20.8400678  45.5744219
  60.8006334  62.0671320  38.0533290  60.9188938  62.0721531  37.1034741
  61.6848707  62.1693754  38.4053254  44.6024609  75.4049063  47.7985954
  44.9497366  76.2708807  48.0124331  43.8992691  75.2655363  48.4328890
  34.4530146   2.2269963  28.8734007  33.5316126   2.2911882  29.1246557
  34.9341815   2.3768472  29.6871901  17.5830779  67.2404549  10.9145130
  17.5694451  67.7744267  11.7088188  16.8957743  67.6140759  10.3629269
   4.8595334  77.1922636  52.9280806   5.6564332  77.4134398  52.4461460
   5.1719094  76.8829775  53.7783718  80.9344006  68.9581966  23.2079744
  81.0309410  68.0247641  23.3966947  81.6983223  69.1747379  22.6734042
  19.0672970  64.0097904  43.3699608  19.9833143  63.7406921  43.3011770
  19.0192962  64.4865465  44.1985941  82.5465910  30.7044362  50.0210428
  82.2468035  29.8451852  49.7243261  83.0365412  30.5233239  50.8231544
  33.4088993  68.5684443  58.5869122  33.5297966  68.9847803  59.4403028
  32.5987029  68.0668831  58.6777353  77.1150343   1.4822816  68.5061693
  76.2149565   1.3684033  68.2010078  77.1794931   2.4130677  68.7199926
  68.4602038   4.3424176  49.9298525  68.5612766   5.2570771  50.1933384
  68.1464068   4.3866395  49.0266323  23.0110583  32.1908972  10.5640854
  23.8837037  32.2124789  10.9568371  23.1731639  32.1799967   9.6207680
  57.6037455  72.6699829  47.6235628  56.8698549  72.1033478  47.8613853
  58.0404091  72.2085333  46.9075871  20.3714316  33.2082986  69.7116947
  21.2826483  33.0718755  69.4522667  19.9479478  32.3649644  69.5514536
  56.0262625  36.8298768  60.1478052  56.5331642  36.6006898  60.9267521
  55.1270811  36.5853452  60.3666782   8.6311436  71.7158365  54.1451216
   8.5263253  71.4047670  53.2459641   7.7716065  71.5850830  54.5455313
  13.1263440   6.1727094  47.9841900  13.1211321   6.8792771  48.6299181
  12.9756682   5.3785657  48.4968996  76.3559620  22.1206521  50.4174995
  75.4732935  21.7503881  50.4124784  76.4502804  22.5266789  49.5558262
  37.3132300  70.1057529  27.5871420  36.3737154  70.2844095  27.6275086
  37.4501634  69.7400713  26.7132092  42.1170983  26.5600321   7.9011025
  42.0617804  26.1082480   8.7431635  42.4161706  27.4421332   8.1217589
  52.5147288  30.3198003  59.3698072  53.2289069  30.7471513  59.8426104
  51.8619101  30.1291036  60.0433731   9.3316453   3.1639337  44.7389364
   9.0834754   3.0901288  45.6604528   9.1779082   2.2904920  44.3787909
  17.3927634  10.3391122  49.7260714  17.0037978   9.4656228  49.6818542
  18.1529801  10.2924012  49.1463137  68.0903006  51.9500256  10.6327355
  67.5306129  52.1940708  11.3699067  67.8808165  51.0308552  10.4669857
  83.8070003  27.6895570  58.8537884  84.4942276  27.1428155  58.4729576
  83.7076370  27.3614644  59.7474957  21.0141080   7.3152398  43.5359955
  21.4363377   7.3182439  44.3950319  20.1053851   7.0747613  43.7166119
  46.9366503  56.1017752  44.4608784  47.7801323  55.6506777  44.4250822
  46.3186026  55.4855490  44.0678072  81.2765591   4.4808244  57.9764128
  81.7337076   3.8320684  58.5115385  80.5977194   4.8314618  58.5530043
  77.9115438  61.8348837  27.2725868  77.8153992  60.9733725  26.8666434
  78.1733274  62.4104166  26.5539336  68.1793062  13.6446046  21.5371418
  68.2483713  13.0195664  20.8154845  67.2513430  13.8778256  21.5640187
  21.3305657   7.0149850  46.2069988  21.2406342   7.1868943  47.1443319
  21.1426299   6.0808610  46.1157036  50.0401926  81.8252659  26.1740637
  50.8712769  81.6099167  25.7507968  49.3950176  81.7878056  25.4679632
  79.7097635  73.8762188  55.6663418  79.6031761  72.9249811  55.6707525
  80.6297016  74.0151978  55.8913612  46.8317549   2.2627973  38.0303860
  47.1299594   2.1220635  37.1317768  47.2658007   1.5764188  38.5370517
  59.3399429  73.5940695  37.4708486  59.4841719  74.2726374  38.1303740
  58.5409117  73.8652754  37.0189357  31.0839121  13.6560010  14.8806763
  31.2778227  13.0283307  14.1844964  30.1278632  13.6845826  14.9179256
  68.3677499   5.7387876  35.5112743  67.7593939   5.0945233  35.1492500
  67.9747049   5.9973668  36.3448715  33.4520190  20.5967950  59.2959023
  32.8863757  21.3571405  59.4305992  32.8473227  19.8780965  59.1113949
  73.0950212  64.7239780  34.5014191  73.5806799  65.4645634  34.8645902
  72.2025442  65.0526667  34.3933511  82.5619738  13.3100938  60.6795549
  83.4441416  13.5632657  60.9514332  82.1906034  14.1063928  60.2997875
   8.6177533  44.1295384  41.4036846   8.8994925  44.8719548  41.9381762
   8.9636510  43.3617925  41.8588305  13.2422297   0.1875543  41.7403746
  12.4537461  -0.3292323  41.9060707  13.1473725   0.9562539  42.3028135
  17.4821162  77.0783091  26.0796142  16.5576041  77.0557880  25.8326268
  17.4754429  77.2867489  27.0138192  76.5968227  63.8617420  33.3150172
  77.0436811  63.3600426  32.6332188  75.6693125  63.8045216  33.0854797
  67.2472572  68.2120752  46.7732620  67.3776150  69.1597700  46.7399454
  67.3380041  67.9257298  45.8644152  41.7764044  72.6479483  28.6296964
  42.1550417  72.2299004  27.8563237  41.0142279  72.1099234  28.8438153
  59.3113995  55.3189087  47.7370501  60.0879335  55.8601522  47.8794432
  58.9312840  55.2113008  48.6089230  64.2540264  70.8311653  49.3537760
  64.9944353  70.7427216  49.9539518  63.5392857  71.1559582  49.9013948
  17.2002730  28.5597727   4.1145052  16.8078503  28.5769246   3.2416166
  17.5462088  27.6717875   4.2041840  79.1630220  80.0536060  57.2527599
  79.8023510  80.2598572  57.9346323  79.5059824  79.2642975  56.8337154
  35.2294827  79.1067696  40.5287027  35.1781797  79.9710846  40.1205778
  34.3879914  78.6969423  40.3282976  58.7216473  66.4945316  29.2175508
  59.1082191  66.9926786  29.9377227  58.4710121  65.6590176  29.6116686
  21.5362270  26.4771344  64.8965917  21.0081871  25.8179118  64.4462286
  21.3195379  27.2991063  64.4565497  29.7833714  56.7079137   1.5018763
  30.3289494  56.2382481   2.1327414  30.4043755  57.0635197   0.8661617
  69.0153543   3.2878827  39.4443870  69.7647898   3.0558347  38.8960004
  68.4177844   3.7447881  38.8524628  40.5910015  74.6922207  24.8017287
  40.6358671  73.8271904  25.2090931  40.1526976  74.5402241  23.9644599
  76.7652122  30.8688687  66.4440441  76.9746057  29.9481725  66.2868881
  75.8361952  30.8672380  66.6745996  73.3794022  38.6021066  62.6908112
  73.7226725  39.4822550  62.5367546  72.5571823  38.5766339  62.2013855
   5.7555192  45.6005429  36.2133288   6.2920945  45.5305146  37.0028949
   5.9744113  44.8195981  35.7049513  12.4553960  14.3178033  47.5417852
  13.1439059  14.5955514  46.9375992  12.4585097  14.9826383  48.2304192
  28.9663069  20.2131509  63.0859137  28.6063426  20.7807588  62.4043846
  28.9675467  20.7563638  63.8740492  79.3922989  36.8254804  60.2801752
  79.3876020  37.6001309  59.7179317  78.6757891  36.9732045  60.8974504
  58.0004168  56.3235807  54.2769957  58.5887480  56.9824696  53.9082623
  57.4844456  56.0186672  53.5306501  55.2528748  45.5760167   2.2419180
  55.7837376  46.2830804   2.6086249  55.4738221  44.8106549   2.7726044
  23.8249247  22.9332112  67.3147249  23.0371897  22.3898362  67.3363352
  23.5012763  23.8283395  67.4158859  64.0457535  64.0319490  70.3569984
  63.6836052  64.7242689  70.9099674  63.3425188  63.8244247  69.7416687
  17.0875971  33.7115907  25.4214501  18.0194609  33.5914563  25.2386117
  16.8572705  34.5227574  24.9684572  50.7416916  80.1583958  16.8723214
  50.6014729  80.5019188  15.9899592  50.1775026  79.3866968  16.9213653
  74.4707672   8.0832337  22.5662327  74.9590485   8.3160161  23.3559322
  74.0693943   8.9044332  22.2820258  58.8360262  81.6445923  18.1811857
  58.5651970  80.7940674  17.8355002  59.3117619  82.0559406  17.4595916
  48.1308651  71.8803501  55.7116985  47.4232721  72.1741343  56.2854862
  48.8879585  72.4015236  55.9789467  38.3603804   6.8449544  54.5313072
  37.4434512   7.0843648  54.3965960  38.3703082   5.8898877  54.4682980
  80.6236649  62.3532677  32.4344516  81.5305805  62.6512814  32.5045562
  80.4008102  62.4791384  31.5121055  83.0300562  15.6066655  34.9914432
  82.3967878  15.6307267  35.7088161  83.8710873  15.4468488  35.4196453
  78.8781969  24.5761060  28.2345462  78.9714281  24.5391511  27.2826147
  78.0744020  24.0888928  28.4155726  60.4616880  80.7139778  49.1712427
  60.7714367  80.4471588  48.3057404  59.5618010  80.3905201  49.2137909
  81.7932980   2.3098420  47.6726341  80.9489672   2.7561139  47.7372503
  82.2119848   2.4656819  48.5191870  34.6904168  29.9308560   0.3787102
  35.4079089  30.4952786   0.0908484  35.1233611  29.1482566   0.7197775
  48.4403865   2.6037358  14.0694714  47.9064219   2.7276658  14.8541725
  48.8866500   3.4418725  13.9486063  51.4130513  18.8671445  11.2629437
  50.5822436  18.9674996  11.7276168  51.8862741  19.6801137  11.4400744
  72.1637194  20.3763341  46.4696884  72.7543251  19.6247148  46.5196228
  72.4069635  20.8184480  45.6563044  76.4075272   5.3585767  38.8702464
  77.0185272   5.9504460  38.4313822  75.5799524   5.8392190  38.8886833
  54.1823244  66.3301039  63.0538034  54.9795151  66.7098284  63.4233046
  54.1432667  66.6760063  62.1621418  71.9385242  69.3918324  24.7679734
  72.6014233  68.7327957  24.9740529  71.8585539  69.3611479  23.8146138
  72.8760283  17.7937936  36.5913725  72.1072475  17.8729867  37.1561170
  72.8161327  16.9103669  36.2277675  31.6951125  11.5405416  68.0441427
  31.9481414  11.3458108  67.1417618  31.0180419  12.2123193  67.9633856
  44.2192650  65.7612753  24.8293376  44.9856853  66.1543465  24.4118166
  43.4723091  66.1765194  24.3982220  21.5976374  33.6429833   6.4834756
  22.1878951  34.3778085   6.6504127  21.8829816  32.9631185   7.0938772
  15.6287179  65.0156281  11.7404522  16.2390980  65.6601308  11.3822712
  15.5940661  64.3249390  11.0786595  12.5341170  14.5685910  13.3238208
  12.2713368  15.4869031  13.3861327  13.3766978  14.5908307  12.8701806
  23.0774443  21.8392610  39.1075587  24.0264933  21.9635057  39.0982175
  22.7600615  22.4671887  39.7565627  51.8167734  60.1226091  39.6778393
  52.4319839  59.4485760  39.9666762  52.0993519  60.9157658  40.1331186
  62.2950459  77.1597910  59.7460413  61.7151260  77.9039383  59.5842743
  62.2112370  76.6161013  58.9627075  81.1678505  78.2889557  46.1169195
  80.7269478  77.9149055  45.3540754  82.0932674  78.0843306  45.9829235
  77.3984282  20.3237771  31.8540907  76.5482990  20.3940343  31.4198327
  77.2168152  19.8387860  32.6590967  26.8565592   7.4636862   7.4947037
  27.5951848   7.1515296   6.9719996  27.2573647   7.8155205   8.2895626
  57.8998089  73.2831717  40.7248402  58.0781984  74.2108774  40.5706692
  57.2045326  73.2790709  41.3827229   8.2323926   2.2794389  53.4041691
   8.8719027   1.6343831  53.7061167   7.8988927   1.9195031  52.5823069
  84.6248338  64.1505241   1.0227318  84.5247255  64.8401403   1.6789609
  84.7268177  63.3472013   1.5331258  35.7552760  26.5931844  53.4065437
  36.0782950  26.7448472  54.2947435  35.7554095  25.6407689  53.3109999
  39.4614029  81.2794304  51.8022346  39.5027781  82.2349739  51.7640543
  38.6108828  81.0611153  51.4212036  44.0177283  41.3919995   0.6207384
  43.8523087  41.1100171  -0.2789007  44.4210515  40.6317303   1.0397162
  40.8402538  71.1163521  70.4811764  40.9774780  70.5695391  71.2547398
  41.3832951  71.8894577  70.6349659  71.3431644  76.9638014  29.4344187
  71.6737700  76.7394686  28.5645866  71.4924669  76.1763954  29.9578071
  67.3867321  67.6883030  54.1347694  68.1467390  68.0352306  54.6019554
  67.7404594  66.9838953  53.5917044  52.5284450  13.9934205  46.6471100
  52.9778115  14.6600484  46.1275959  53.1957857  13.6722611  47.2535276
  77.9333591  62.6511192   6.5491766  77.3617840  63.3066034   6.9490236
  77.8663301  61.8906689   7.1266317  86.3944189  36.7248105  43.6004925
  86.6443197  36.1317395  44.3090487  85.4385511  36.6803121  43.5768223
  57.6464765  27.8861283  45.4366350  57.2574369  28.4912156  44.8051739
  58.4934322  27.6542329  45.0556850  12.9535859  30.8032464  38.4662700
  13.6413758  31.0345792  37.8420401  12.5973551  31.6442441  38.7527037
  -0.1714666   0.8530664  35.9422469  -0.0830657  -0.0314475  35.5872011
   0.5116933   1.3577222  35.5008340  77.8801910  25.8942746   1.0782543
  78.5790817  25.3249215   1.4001486  77.7124636  25.5873155   0.1872567
  26.6014807  39.7961568  67.6657438  25.6745570  39.9069356  67.4541616
  27.0638316  40.1141786  66.8902922  72.4374716  25.7982587  39.2305231
  71.7798845  26.4005708  39.5784068  73.0132715  26.3512658  38.7024498
  65.2963130  22.9711198  40.6703568  65.1291863  23.2869481  39.7823524
  64.8425953  22.1294450  40.7145691  62.3395006  24.0236329  33.8956308
  62.3539083  23.8400029  32.9563212  63.2094066  23.7685441  34.2029166
  59.8731844  14.6570825  28.0968571  59.0471928  14.8879384  28.5219121
  59.7769253  14.9734639  27.1985984  76.2010908  62.2881794  24.6610475
  75.8760166  61.3973522  24.7913909  76.5400124  62.2908783  23.7658644
   7.6752703   8.8486337  55.2241850   7.0424168   9.4204377  55.6586647
   7.1511452   8.3338498  54.6105719  70.1209776  25.7571935  62.6697445
  69.5478289  25.8599996  63.4294558  70.9972708  25.6594895  63.0422974
  82.2158234  33.3073281   1.4006217  83.0824272  33.4275483   1.7889193
  81.6252510  33.7903070   1.9787143  28.3227143  69.1156361   3.2528080
  28.4533009  68.3121655   2.7492108  27.5715146  68.9264748   3.8150753
  74.8458910  75.8129549  44.3654633  74.4706583  76.4366102  44.9871445
  74.8188257  74.9727440  44.8232269  25.7279055  32.2322320  62.7804041
  24.9480097  32.7423715  62.9989290  26.1637728  32.0892953  63.6205339
  18.5860579  12.4263429  17.8095973  17.7938550  12.9504346  17.9278088
  18.4218686  11.9201802  17.0139408  57.6197910  68.1683588  10.4375553
  57.4178791  67.2401905  10.3193784  58.5648441  68.1906366  10.5879128
   6.6937535   3.5113954  27.1534657   6.8867724   3.9566468  26.3284039
   6.9619792   4.1334104  27.8297663   8.8003104  17.4730729  44.6666622
   8.7978547  16.9082021  45.4394197   9.2266982  16.9492196  43.9884233
  20.5721896  11.4873742  41.4494467  20.1062768  12.0207070  40.8054638
  19.9681513  11.4230584  42.1892023  19.5610516  13.4356546  35.4426336
  19.8870556  12.8013372  34.8041987  20.2123397  13.4258508  36.1440325
   2.5403882  76.3280725  31.3021111   3.0524827  77.0628214  31.6399479
   2.1471692  75.9324360  32.0799851  34.1996138  22.1761750  21.0025811
  33.7445300  22.1741723  20.1604843  34.7257083  21.3765859  20.9924197
  49.5822096  80.8832264  45.9676456  50.0130463  81.3933372  45.2817869
  49.0538883  81.5225506  46.4455318  57.4575791  41.5025017   3.9614214
  56.8976102  41.0863660   3.3060564  57.4610314  40.8901475   4.6971144
   2.9987519   3.9574765  42.1924019   3.8130610   4.3788003  41.9174194
   2.3209088   4.6110105  42.0201778  16.3783371  77.9498005  34.5254874
  15.7763851  78.1909657  35.2295637  17.2253668  78.2970667  34.8050904
  45.7131577  78.1680441  43.4735918  45.8012342  78.1242180  44.4257259
  45.9336519  77.2868204  43.1718445  36.7232513  67.9064178  34.9209833
  36.2331343  67.0843172  34.9079990  36.9933391  68.0386209  34.0122437
  50.6160593  62.2522068  16.6870964  50.9262609  61.3532686  16.7962933
  50.0776815  62.4155331  17.4615014  31.0960087  33.9797900   6.6458477
  31.2655339  33.3884356   7.3791899  31.9654736  34.2151091   6.3219895
  34.5597403   5.4224729  32.7165651  34.5406859   4.8047017  33.4474754
  35.4279559   5.3092050  32.3297906  23.3979249  76.8246269  29.3023181
  23.9338326  76.7538261  28.5123682  22.6338959  77.3322010  29.0287232
  44.9101338  39.2312215   2.0516981  45.4941258  38.5651038   1.6891159
  45.3105101  39.4716046   2.8872503  83.5080425  14.7422170  48.3709288
  82.6989786  14.8301362  48.8748312  84.1537611  14.4336080  49.0065670
  52.9529397  22.6923131  56.6609240  53.0557434  23.2790994  55.9116936
  52.0116035  22.5248860  56.7066336  77.3177282  36.6093015  42.7327585
  76.6649954  36.0713624  42.2846508  77.6958363  37.1526383  42.0413494
  86.3074343  34.6404599  53.6256456  85.6630032  34.5064019  54.3206024
  86.9802038  33.9802693  53.7922525  29.0964255  50.7283566  20.3988709
  29.1935048  50.0192425  21.0344471  29.0161500  51.5189526  20.9324898
  67.9709236  34.6391629  37.3514795  67.3589651  35.2687310  36.9701838
  67.9857175  33.9122914  36.7288518  13.0262416  17.4041318  54.7109222
  12.3716920  18.0989121  54.6396589  13.6806672  17.7527761  55.3162384
  19.1924191  51.6152048  48.5559368  18.4792996  51.4975023  47.9283714
  18.8244057  52.1830511  49.2329454  21.6950377  57.4577023  62.4394457
  20.7855900  57.2720982  62.6733027  22.2096069  57.0471264  63.1343411
  74.4276611  13.9906739  11.7222834  73.9279263  13.2475804  12.0603716
  75.2423756  13.6048554  11.4004040   4.3788140  21.3819455  30.5191112
   4.6256869  22.0560025  29.8859215   3.5413115  21.6811132  30.8731198
  72.3739044   9.4687223  53.6603880  71.9095938   8.6373281  53.5632467
  71.6823332  10.1130532  53.8113976  20.4554272  53.6529589  35.4917741
  19.8392106  52.9757309  35.2127147  20.9829331  53.8322353  34.7134233
  34.8317174  18.7090253   0.8312739  34.2925487  18.2004880   0.2255342
  35.6562041  18.2254075   0.8818944  66.9570105  25.4556226  67.4001694
  67.3841969  25.4425000  68.2566595  66.0451905  25.2295922  67.5838184
  48.4509563   9.3403047  64.9564266  48.9175177   8.5063601  65.0120258
  48.8522673   9.7901595  64.2129135  79.1545398  68.1538666  40.8910799
  78.5054810  68.1951428  40.1887655  79.9980481  68.1691469  40.4388762
   6.0105753  24.4637156   1.3426544   5.4521608  25.2278733   1.4857200
   5.6253022  24.0240622   0.5846963  57.4577871  72.4324615  64.6925926
  56.7636778  72.4592538  65.3511715  57.0021654  72.5525279  63.8593912
  53.2503485  20.8069921  12.7723742  53.4767341  20.0957966  13.3716917
  53.9570188  20.8102274  12.1267414  21.8181634  19.4477928  39.7267890
  22.1786070  20.3261614  39.8483491  21.7491174  19.3464994  38.7774706
  16.0122323  21.7810202  20.2119946  16.1604011  22.6953554  19.9706066
  16.8901145  21.4048982  20.2759337  20.3389740   4.7870806  23.3866644
  19.7383022   4.7980359  24.1318512  20.7044411   5.6713808  23.3606005
  12.2117698  10.3866589  38.8391709  12.6896000   9.7089422  39.3173027
  12.1055543  10.0283456  37.9579449  37.1522737  15.8529782  35.7249928
  37.5212741  15.0084674  35.9835863  37.9148531  16.3998401  35.5361891
  12.4520957   9.8496658  47.6993704  13.3252418  10.1659143  47.9313898
  11.8814278  10.6077170  47.8255796  68.7095065  60.3888441  23.5478711
  67.8009487  60.0887657  23.5744572  69.0038390  60.3422738  24.4575047
   5.3664358  59.2483021  36.7548800   5.9231694  58.6486650  36.2581778
   4.4935353  58.8582135  36.7089796   9.4940275   1.8739447   6.6637468
   9.2627800   2.6834556   7.1192122  10.3961790   1.6980785   6.9310009
  37.2802479  58.7399865  22.7209878  38.2298131  58.8194753  22.6302147
  36.9258387  59.3352748  22.0604897  68.0456943  77.9111178  54.9444199
  67.7099926  77.0496912  55.1923752  67.5195504  78.1639419  54.1858149
  83.8166394   3.1125301  38.4068584  82.9703089   3.4172651  38.7341094
  84.2333024   3.8980189  38.0524135  37.0421743  31.3359785  65.4493713
  37.6371050  32.0689988  65.6074047  37.4504042  30.8457351  64.7357607
  36.7996621  39.8818302  23.3512998  36.9549060  40.8147097  23.2034111
  37.0328808  39.4657040  22.5214314  38.2935169  37.1888082  60.7343553
  38.0676672  37.7968474  60.0304292  38.0653807  37.6568665  61.5375410
  41.0072689  40.1603670   2.1245207  41.5137486  40.4757498   2.8730168
  41.6622715  39.9849514   1.4489235  12.6996000  59.7907973  56.3318872
  12.2769983  59.0112616  55.9713840  13.3564575  60.0310207  55.6783819
  51.3136614  77.8375492  32.4900031  52.2260601  77.7453617  32.7643418
  50.8806945  78.2551099  33.2345939  20.3686881   5.8201623  27.8218126
  19.5240426   5.4193491  28.0271268  20.5090022   6.4559060  28.5235071
  86.5019472  72.4680139  54.4695473  86.1326225  73.1780131  53.9444447
  85.9270174  72.4104489  55.2326822  14.2653616  74.7548289  33.0309701
  14.9912556  74.5435805  33.6180687  14.0278633  75.6539650  33.2576442
   7.7564939  42.3822785  22.1744442   8.6285766  42.2729183  22.5535822
   7.8518398  43.1104041  21.5604639  40.6655979  26.3160062  59.6975470
  40.0616932  25.7011294  59.2810631  41.0809088  26.7753530  58.9676523
  77.9940970  73.6144746  32.1806669  77.5793774  73.1329102  32.8964424
  77.3491282  73.5951186  31.4736509  54.6878542  63.2689870  36.8600583
  54.3088842  63.1601060  35.9878445  54.4597818  64.1643227  37.1102357
  38.0738521   8.6004478  45.9040117  37.6454234   7.9409796  45.3583193
  37.9393625   8.2935250  46.8006420  55.2884953  17.2818039   3.9212860
  55.9317343  17.2739791   4.6300997  55.5194656  16.5269588   3.3799090
  37.5838017   8.2226574  63.9678335  38.5063982   8.2937437  63.7229013
  37.5329995   8.6324036  64.8314047   9.1214561   0.4825521  44.2464113
   8.9024734  -0.3253663  44.7106838   9.6074104   0.1912560  43.4749031
  58.7980541  74.5480383  11.4830530  59.0242676  75.0513537  10.7009196
  57.8434966  74.4817413  11.4574289  14.8981273   3.9182085  19.6900201
  14.5977831   3.0339888  19.9002147  14.5798230   4.0742439  18.8008821
  23.9447474  20.1120186  36.2761545  23.1335211  19.6057999  36.3195586
  23.6590815  21.0251498  36.3047838  21.8593049  18.9522576  42.6914549
  21.4025331  19.7910488  42.7548552  22.1537781  18.9080513  41.7817497
   7.7490056  28.2282448  30.0902700   8.3324635  27.7949452  29.4673252
   8.0174041  29.1468382  30.0707436  65.9144683  73.0438430  45.5096102
  65.6305702  72.6903362  44.6666002  65.9887595  73.9865501  45.3612328
  14.6003056   4.3441573  34.3791199  15.4973698   4.6049780  34.1705990
  14.1637635   5.1606894  34.6218920  51.0475126  43.4820303  59.9837886
  51.2632003  42.7228069  59.4422267  51.1493984  43.1712528  60.8833824
   2.4556883  70.9637023   2.9551598   3.4005220  70.8600832   3.0682319
   2.3674162  71.5596343   2.2113153  18.8772309  14.5553315  31.9495511
  18.1698775  13.9105153  31.9398713  18.4330833  15.3964972  32.0563459
  37.7745962  18.0124891  19.6750057  37.7418375  17.0571554  19.7249770
  37.9593968  18.1979728  18.7543130  22.2306357  46.6938011  12.2301926
  21.6991822  47.1468602  12.8848137  21.6675000  46.6431759  11.4578308
  39.6887159  10.4013324  58.5122395  39.0673590   9.8258281  58.0662107
  40.5229950   9.9342901  58.4666348  37.0739913  21.2158442  31.7352295
  36.7506194  20.6126952  32.4044633  37.1203685  20.6871867  30.9386110
   6.1052521  67.7729727  17.0391333   6.8652614  67.3759652  16.6136920
   5.4496797  67.0757485  17.0575213  68.7353535  75.4319675  47.6661062
  67.8377290  75.4581649  47.9974890  68.6381204  75.3520597  46.7172146
  23.8498926   5.2301002  40.6709051  24.5960593   5.0663221  41.2476540
  23.0828953   5.0508350  41.2147856  49.9841404   3.4855029  27.8015256
  50.4878902   3.7922636  28.5554266  50.5795288   3.5858253  27.0587730
  70.4647012  67.8266347  31.9751859  69.7067125  67.4194945  32.3946166
  70.8470399  68.3797444  32.6564479  71.0322161  76.7313910  23.7692833
  71.9140715  76.6323627  24.1281104  71.1079151  76.4345915  22.8624153
  19.1544683  80.4384311  24.4909883  18.4452398  80.7397211  23.9231348
  19.1924913  81.0887828  25.1922941  82.0953376  74.7680105  36.7597699
  82.0208413  73.8571627  37.0444417  82.5771077  74.7222001  35.9339166
  47.7363205  22.7429366  35.0051832  48.3002853  22.3837709  35.6901455
  47.4722385  23.6007857  35.3377318  49.4414654  29.3547752  55.5647813
  49.0360227  28.5316231  55.8373032  48.7482586  29.8195591  55.0960909
  27.0785165  19.5372379   5.0116390  27.2446656  18.8719153   5.6794506
  27.5028706  19.1971385   4.2239282  77.7866061  78.6765877  31.1411452
  77.0210559  78.8891394  30.6073022  77.4520988  78.6442284  32.0374107
   5.6557232  19.0722775  47.9317093   6.4509225  18.5844576  48.1459999
   5.1869774  18.5080183  47.3167944  43.6404562   5.7414991  32.7131128
  42.9923534   5.4915237  33.3716774  43.2224321   5.5380720  31.8763924
  65.9999394  16.6188109   4.7790977  66.6515803  16.6721237   5.4782087
  65.5969333  17.4868405   4.7606117  10.3777774  67.9895783  34.1729927
  10.2868732  68.7524939  33.6020923   9.8240264  68.1881393  34.9280858
   1.6019192  10.6269348  25.8823586   2.1182363  11.0255075  25.1817942
   0.8469335  10.2441990  25.4354334  18.1119907   4.0618411  11.5401423
  18.9023328   4.0361369  11.0007632  18.1377637   3.2470250  12.0417833
  16.3648565  75.2143116  34.4863963  16.4017256  76.1683709  34.4182491
  17.1712454  74.9129535  34.0678883  78.6349828  80.6629269  43.1817722
  79.5418460  80.7069113  43.4849167  78.6657793  80.9962354  42.2850084
   7.6595099  70.9260524  42.3571205   6.9727190  70.5066360  41.8388176
   7.1910222  71.3547123  43.0733585  69.3377001  60.5323125  26.3597202
  68.6572809  60.6709529  27.0185375  69.8056872  59.7528292  26.6591001
  82.8325994  71.3122309  53.1351376  82.9426033  72.2446055  53.3217096
  82.9534824  70.8826328  53.9819336   0.8334243  11.5267539  70.3609991
   1.3668348  11.7626572  69.6020174   0.3108289  10.7817376  70.0642204
  23.6898446  15.5062044  25.9760070  24.4662070  14.9655366  25.8304977
  23.0440617  15.1702106  25.3544760  68.7291152  60.2796913  51.1593866
  67.7887560  60.1010681  51.1522388  69.0893133  59.6935345  50.4938698
  80.5954392  68.3087219  29.1512847  80.5696518  68.7135900  28.2843089
  81.3515670  68.7092913  29.5802927   3.6795791  68.5627795  50.0202322
   4.0030654  68.0731488  50.7764387   4.2310222  69.3444801  49.9873018
  34.9354134  69.2532371   0.2790608  34.1496448  69.3728636   0.8124365
  35.0691543  70.1014064  -0.1439701  23.1530833  23.6669016  34.5193410
  22.9041886  23.0192447  35.1787543  23.5586882  23.1535935  33.8206053
  18.3361530  19.1723633   7.0510358  17.8031480  18.8965082   7.7967179
  17.9684055  20.0177312   6.7934567   7.8161663  27.9639554   3.1408688
   7.5340044  28.4548593   2.3690975   7.0039332  27.6335526   3.5247213
  57.1816111  11.9223332  33.0561066  56.5460968  11.5595901  33.6731720
  56.6478777  12.3026860  32.3584723  83.8419492  36.7868854  30.2568126
  83.7355955  36.7313672  31.2064648  84.6535714  36.3117934  30.0785184
  20.8650732  11.3252568  27.4332857  21.6528940  11.4086843  26.8960619
  20.9989524  10.5187368  27.9311156  13.6625183  29.6871400  21.6916347
  14.0663218  30.1161528  22.4460387  14.2383707  28.9468002  21.5005207
  63.5440798  70.8264924  33.9254355  62.6808883  70.4191709  33.8531733
  64.1506584  70.1617635  33.5992002  16.6271687  38.1572914  27.9376817
  17.5538027  38.3380961  27.7799106  16.6198218  37.6154804  28.7267447
  57.7334092  81.6691105  48.3463478  57.6276404  81.0537059  47.6208687
  56.9360409  82.1984080  48.3296204  71.3894458  42.3165179  47.3515224
  71.0623259  43.1371833  46.9830990  70.8176334  41.6434909  46.9823360
  30.6602348  49.5743086  66.4929815  30.4889042  49.2666730  65.6029038
  29.9370505  49.2217901  67.0116012  18.9278896  77.0700733  62.8506613
  18.7034233  76.9804035  61.9244862  18.0993565  76.9388975  63.3117008
  43.5077477  11.1907530  38.5102725  43.8104343  10.3406167  38.1910825
  44.3111229  11.6821182  38.6816621  58.6492483  20.8180617   0.5282129
  58.0384509  20.3398131  -0.0325332  59.3153827  21.1514782  -0.0728927
  17.8987415  60.4691840  27.3154974  17.4333008  61.2209130  27.6822400
  17.6005133  60.4227162  26.4071298  72.7172914  63.8370325  70.1426696
  71.8710962  63.6619332  70.5544120  72.6683822  64.7549465  69.8757043
  45.4720370  45.2549587   8.1240858  45.1773016  45.1546253   7.2189392
  45.3519158  44.3884103   8.5125412  19.3613243  10.2347207  43.7364101
  19.3633771   9.2784840  43.6935377  19.8802531  10.4407275  44.5139122
  31.0982132  18.3403790  36.9691610  31.7910266  18.9931345  36.8683887
  30.3300762  18.8455653  37.2355866  36.5891337   7.0644063  34.5274734
  36.3760614   6.1818850  34.8307681  35.7389593   7.4813688  34.3875647
  75.7032816  17.3771738  10.7373871  76.6033356  17.2227310  10.4505314
  75.4719297  16.5919398  11.2334789  21.4946182  62.8034473  43.7273741
  22.3558028  63.0744935  44.0453768  21.4789493  61.8552078  43.8570929
  35.4919863   3.0826360  40.2178001  35.3701687   4.0231851  40.0883436
  35.7293844   2.7504653  39.3520451  27.0646501  47.6526642  23.3362079
  27.0438266  47.2919989  22.4497986  26.1453128  47.6943731  23.5994744
  49.4486952  16.6607296  59.8083639  49.9445057  17.3274875  59.3331385
  49.6212292  15.8488142  59.3316460   5.9486383   9.3807733  58.0066490
   5.0512356   9.1626757  58.2583141   6.4092565   8.5417002  58.0110216
  54.3860437  62.9040445   7.8528291  54.6497164  63.0467142   8.7618691
  53.4824736  63.2174898   7.8135204  81.2313182  64.2286099  21.1290979
  80.6029732  64.2814780  20.4089451  81.8047721  63.4992934  20.8935595
  36.8071024  73.0298256   1.4989151  36.8347625  73.6835741   0.8002915
  35.9146486  73.0824183   1.8409552  61.9154215  10.7128394  13.9468718
  60.9950638  10.9587419  14.0401506  62.0698500  10.7168424  13.0022192
  72.0428200  47.7914978  35.9067702  71.7854888  47.9852558  36.8081403
  72.2566278  48.6450506  35.5299830  20.2687669  18.1516743  27.0967674
  20.5058479  17.2742856  26.7964101  20.9588838  18.3871734  27.7168584
  43.4612465  37.0799088  17.4086821  44.3687487  36.8362164  17.2262323
  43.0654335  36.2828183  17.7611184  14.1561627   5.0525206  25.2750754
  14.9087191   5.6407523  25.3373218  13.4022272   5.6362349  25.1908684
  82.9294760  53.6016036  31.5259814  82.5665910  52.9509235  30.9250140
  82.1646054  54.0637566  31.8689394  63.7685014  75.3822858  16.1960459
  64.4757027  75.6974144  15.6332040  63.4053488  74.6312989  15.7266092
  21.3384938  15.3730512  32.8442430  21.7924190  15.8892655  32.1781301
  20.5412412  15.0696492  32.4100018  51.8819810  76.8812011  15.9794366
  52.5904060  77.3243151  16.4463592  51.0848970  77.3101578  16.2907028
  21.5991719  61.7994965  67.1333599  21.2974579  60.9233094  66.8935728
  21.6782362  61.7729689  68.0869198   0.6926282  33.9557744   9.2942661
   1.0093315  34.5963860   8.6574423   1.4515670  33.4006072   9.4732380
   7.6348186  11.4071500  39.1833234   7.6515961  10.4937470  39.4690585
   8.2810342  11.4495134  38.4784532   9.0878731  30.5179358  29.0883470
  10.0337481  30.5789375  28.9548182   8.8206667  31.4076853  29.3189549
  19.8839816  67.8954913  55.1112603  20.4584828  67.5667145  55.8026980
  19.0344348  67.4945190  55.2948986  43.3565855   7.6523197  43.9409113
  44.0101385   8.3392441  43.8096189  42.6279449   7.9032993  43.3731699
   9.6989775   4.9510258  49.4378948   9.5867693   5.5675954  48.7143707
  10.6382120   4.7670031  49.4522762  79.7635602   8.2562923  13.6270404
  79.5553743   8.1825411  14.5584106  80.4775810   7.6334405  13.4911668
   5.3703111  24.0923023  10.7330585   4.5983282  23.5341811  10.6393850
   5.0558770  24.8570657  11.2152386  74.5940394  45.4146934  47.8041172
  75.0011296  46.2802769  47.7683783  74.0981991  45.4168344  48.6228800
  48.5404208  42.2334395  67.6358567  48.2859590  43.1550562  67.5899877
  48.0487874  41.8138011  66.9298591  63.8453538  65.4324211  17.9125106
  64.1716702  66.2391652  17.5138712  63.6931337  65.6627012  18.8290429
  43.1303453  31.1536551  10.4887056  44.0521478  31.2632108  10.2552342
  43.0253743  31.6603327  11.2939942  66.0702373  54.9970747  27.1878433
  66.4785333  55.1267339  26.3318563  66.7242588  55.3065492  27.8145123
  52.1304418  73.4648854  47.0422268  52.3891629  73.7244047  47.9265022
  51.1828805  73.5986967  47.0209312  50.1605571  54.6169258  17.3576033
  51.1038602  54.4654203  17.2988009  49.8542286  53.9744712  17.9976392
  71.2550433  27.6258517  60.5553150  70.7008357  27.6092149  59.7750568
  70.9012766  26.9347192  61.1151552   8.7721699   2.4797682  47.3291016
   8.7440836   1.5749496  47.0180655   7.8811550   2.6571929  47.6305103
  85.5360332  65.1115062  64.1674249  85.3729263  65.6158831  63.3704106
  86.4886823  65.0268915  64.2065667  50.9459079  71.6015364  31.0287571
  51.2277974  71.2563182  30.1816487  50.0534011  71.9118703  30.8759332
  11.9631632  64.2440451  45.4883862  11.3607271  63.5019792  45.5397558
  11.3942583  65.0087191  45.3997755  62.2844283  34.6601574   7.8501429
  63.1869308  34.3439429   7.8917469  61.8081419  34.1073136   8.4696163
  29.1299725  32.1816730  21.4744115  30.0047159  32.1515369  21.8618989
  29.2285848  31.7486715  20.6264615   7.7457005   0.8788154  17.1979570
   7.7525324   0.1521406  16.5749574   6.9183826   0.7821843  17.6695919
  26.5481210   3.9305076  34.4699574  26.9075704   3.0515155  34.5899653
  25.7023263   3.9065585  34.9174905  29.4310832  32.4882436  47.1815109
  29.9249434  33.1408000  46.6850233  28.8149643  33.0011415  47.7045441
   1.1456662  25.6444502   1.4539483   2.0704934  25.4138517   1.3659114
   0.9568141  25.5258679   2.3848104  33.6768866  64.2394638  34.1730309
  33.4524846  64.0930462  33.2540965  34.5860100  64.5383263  34.1528893
  47.5570107   6.5461004   4.3142763  47.5000143   7.3125827   4.8847914
  46.9757032   6.7492342   3.5814416  29.9540281  30.2597237   6.7455226
  29.7682643  30.5758238   7.6297200  29.9404931  29.3058729   6.8243927
  70.7434069  41.0957575  21.4041638  69.8811578  40.7826281  21.6774964
  71.1304664  41.4578438  22.2012281  16.9363165  60.5599546  30.3299904
  16.1665297  60.3169632  29.8155808  17.1444476  59.7741556  30.8353972
  18.6936688  59.6532583  52.0104980  18.1773889  59.0199566  51.5118837
  18.2457232  59.7162771  52.8540659  24.6565819  28.0701160  54.3393850
  25.0761986  27.3380613  53.8874388  23.9146399  27.6752210  54.7974348
  18.3241093  41.7216587  40.1652718  19.2458498  41.7608833  39.9101520
  17.8489304  42.0333958  39.3950415  42.2121389  60.1342202  11.4913404
  42.8817471  59.8313261  12.1046174  42.1239956  61.0693694  11.6756189
  63.0910540  30.5171156   4.7902682  62.7233648  30.1039791   5.5715191
  62.7667427  29.9857187   4.0631700  40.8070803  50.1530170   4.5342898
  41.2166834  49.2954731   4.4199246  40.0891590  49.9956656   5.1475286
  10.9381592  13.9052498   4.5246071  10.3734624  13.2909560   4.9936408
  10.3455818  14.3752515   3.9379361  41.5598965  10.8361053  40.3772020
  42.2811222  11.3448906  40.0067902  41.0110283  10.6156456  39.6246290
  45.3661299  23.0565023  15.3022921  44.9012947  22.7451515  16.0789633
  44.6914721  23.1119108  14.6255362  45.8269739  41.2991190  35.0278020
  44.9260759  41.4975691  34.7723961  46.2855291  42.1364784  34.9585986
  12.5711167   6.2182891  35.8820963  12.4069238   5.2937961  36.0680652
  13.3428192   6.4345068  36.4055037  12.8005755  37.9250741  46.2022686
  13.4345984  37.2086143  46.1717701  12.0175624  37.5700617  45.7814503
   4.4210386  50.6460094  18.9171767   3.9061770  50.0651789  19.4773436
   4.4392982  51.4789867  19.3883920  48.1033316  71.9456675  69.5047054
  47.6151994  71.1258771  69.4278730  47.5344482  72.6017930  69.1020875
  32.3593958   3.8620068  66.4975010  31.4156111   3.9588095  66.6244940
  32.7466686   4.2235876  67.2946925   8.8863510  16.4128911  19.7469223
   9.0200734  16.0855842  18.8574171   9.1422075  17.3342681  19.7040904
  58.5095872  77.5288139  57.2694969  59.1177132  78.2459531  57.4487352
  58.6555646  76.9071264  57.9825401  50.3464794  31.1088157  52.0543575
  49.6809149  30.7303047  51.4799166  50.6575108  30.3711820  52.5791359
  10.2076161  22.5212073  35.3764653   9.8173529  23.3720684  35.1765585
  11.0504103  22.7326608  35.7779837  38.1585217  22.9648614  25.5534434
  37.5690722  22.3013902  25.9120369  39.0258503  22.7098584  25.8679986
  34.7704887  30.5324292  28.3687329  35.1567650  31.0523033  27.6639247
  34.9849176  29.6270943  28.1437492  70.5401320  74.8394091  26.9135141
  70.3678377  74.9918831  25.9843755  69.8223216  75.2823395  27.3660517
   9.0582287  36.6612005  34.2508602   9.8121202  36.3753247  34.7667623
   8.9320087  35.9656405  33.6054921  15.6207037  26.8172717  57.3950577
  14.8128223  26.9733286  57.8841448  16.3039494  26.7864728  58.0647278
  36.4633965  56.3563681  21.0675836  36.7009878  57.0763111  21.6519308
  35.6851816  56.6691542  20.6063008  41.4971733  25.2041960  52.7475452
  41.3102627  26.1051702  53.0112505  42.1491146  24.9001575  53.3790207
  26.9906902  43.7865162  16.7522717  26.1963391  43.4489822  17.1661615
  27.5643301  44.0132666  17.4842238  70.5092764  18.9451241  24.3076849
  70.3362513  18.1453311  24.8042989  71.2040901  18.7016368  23.6959839
  54.5460558  15.3179920  19.4795787  55.1391602  15.0178981  18.7908101
  53.7136364  14.8883343  19.2828321  21.8013859  60.2515030  37.8095627
  20.8954811  60.2908802  37.5029397  22.3006248  59.9635696  37.0453072
  17.3368907  29.1513562   8.1805557  18.1286335  29.0917873   8.7151843
  17.4913287  29.9016809   7.6066250  31.6661978  18.7973070  42.6059961
  31.5334105  19.0487838  41.6920185  32.5453758  18.4192705  42.6250887
  30.9508348  16.6713274   6.8553412  30.9833050  17.6269186   6.9003153
  31.0606480  16.3850045   7.7620888  21.1861587  34.7659230  33.7870646
  20.4506230  34.4094992  34.2852426  21.1464143  34.3134761  32.9444838
   2.2077592  29.4203424  17.5408304   1.5068717  28.7903094  17.3733640
   2.4549752  29.7398663  16.6730630  44.2602253  20.7770848  27.4427915
  44.6273232  21.6486692  27.2950935  43.6724091  20.8882475  28.1900167
   6.7184699   0.6153464  66.7583466   7.0410150  -0.2440509  66.4869928
   5.7908618   0.6085082  66.5222788  73.1349658  80.8149052  55.1136875
  72.5072061  80.2307987  55.5390930  73.9902591  80.5051994  55.4116583
  66.5351366  32.5696135  26.1514401  65.8190274  32.1280861  26.6080284
  66.4992022  32.2245812  25.2593136   7.8418601  24.9856257  28.4342003
   7.6784325  24.5178318  27.6152420   8.3696431  25.7416153  28.1769943
  40.7863760  39.1247582  60.0871801  40.1517963  39.8368597  60.0068569
  40.5308294  38.6653066  60.8870745  32.9278874  36.1500049  23.9244604
  33.5114026  35.3925800  23.8791704  32.0798492  35.7843161  24.1761208
  85.9133939  39.4820738  11.3192773  85.8443462  39.4489384  12.2734082
  86.0220289  38.5684776  11.0551298  43.1567574  14.8213518  31.6402936
  42.5831652  14.1551960  31.2615299  43.8095236  14.3235528  32.1325588
   4.7978789  20.4692316   8.9911932   4.5583498  19.8174965   9.6500546
   5.2290553  19.9650061   8.3012104  35.2257061  14.7921562  33.4947133
  36.0241461  15.0427985  33.9593673  34.9928904  13.9392078  33.8614655
   9.4720882  31.4042306   8.0247098   8.8030982  32.0886111   8.0071670
   9.9184823  31.4839864   7.1817374  39.3178248  18.4058177  29.0541697
  39.0520144  18.1997097  28.1580138  39.5338488  19.3380475  29.0315151
  43.0602312   4.6832868  51.1315584  42.6817703   5.1691091  51.8643427
  43.8396931   4.2657566  51.4980793  24.2557597   9.6065372  43.3632994
  23.6032772   9.6582311  42.6648569  23.8070893   9.9496597  44.1360855
  69.7422754  16.4723325  38.7021756  69.3472790  16.8182445  39.5025229
  69.9740838  17.2497523  38.1941247  16.6810215  44.7348595  10.9487951
  16.6229260  44.0823126  11.6466761  15.7871068  44.8082399  10.6144857
   7.1079457   6.9467950  59.3959236   6.6432518   6.9739795  60.2323198
   6.7125452   6.2125874  58.9260006  21.1398363   4.1949365  45.4694986
  22.0402360   4.4752073  45.3052998  20.8619165   3.7887934  44.6484995
   1.3205019  12.9911304  45.8705330   1.3957430  12.0376432  45.9083843
   1.3802089  13.1992733  44.9381447   2.8747280  74.7357381  15.6422412
   2.9686411  75.3810723  16.3429236   3.7683280  74.4408555  15.4668641
  33.4211596  60.2933050  20.3108454  33.3537300  60.6852246  19.4401658
  32.5204762  60.2716280  20.6341553  49.4995276  38.1998952   5.6695999
  50.3445975  38.2993983   6.1079897  49.6698277  38.4502067   4.7615399
  43.7348461   8.6765403  16.2716520  43.7799168   8.3884633  15.3599441
  42.9416180   9.2105138  16.3151777  44.3418029  74.4628718  62.3758952
  44.1520276  74.5840456  63.3062361  43.6266640  74.9118712  61.9251101
  71.9797101  67.1094754  68.2675637  72.9220882  66.9421103  68.2554831
  71.8273034  67.5612166  69.0975837  33.3376884  66.1651325  19.7579598
  32.5716448  66.7388296  19.7410285  32.9890227  65.2943182  19.5673180
   3.4919825   5.1632410  34.7968650   2.6868254   5.3585207  35.2762604
   3.2626992   5.3003418  33.8777018  34.4980669   5.6830525  20.1616335
  33.6350989   5.8354229  20.5467272  34.6817303   4.7612339  20.3426051
  35.4405284  46.5261984  15.0714314  34.9287605  46.6770744  14.2767227
  36.2020111  46.0277462  14.7749138   3.7316006  10.6040835  43.9636183
   3.9712045  10.9311092  44.8307276   4.5396429  10.6626642  43.4538460
  36.2751436  63.3526850  25.4425979  35.8256841  62.8188801  24.7874093
  36.4741564  62.7427292  26.1529398   9.6874459  64.8993290  26.0437059
   9.3312939  64.2559696  26.6564655   8.9702900  65.0715853  25.4335856
  29.7309828  12.9673338  29.3102407  29.7944808  12.3356748  30.0266266
  30.0674486  13.7835646  29.6800900  77.8634865  11.9293000  37.5616132
  77.7964492  12.3078515  38.4382187  76.9861193  11.5935351  37.3779832
  37.3804879  36.0812211   8.8193440  37.4534607  36.9105721   8.3470297
  38.1883836  35.6133652   8.6080402  29.1464663  29.7545481  28.4421420
  29.4965744  29.9286509  29.3158388  29.3276167  30.5539775  27.9478431
  60.7193723  72.1033766  59.8890470  60.5958882  71.9656803  58.9498864
  60.6591001  71.2271287  60.2695571  33.1248069  20.9579134   5.0014865
  32.5916433  20.8814383   5.7927638  33.0348659  20.1087022   4.5690745
  41.3485289  11.7213738  47.6202679  41.0117149  11.5009069  48.4887028
  40.6993198  12.3239791  47.2574663  25.1378083  35.4873633  46.2098885
  25.4093885  36.2157440  45.6513739  25.8385611  34.8416686  46.1190414
  28.0099845  16.3625944  19.9689901  28.4005618  15.5634534  19.6153569
  27.8760958  16.1730957  20.8976436  29.1383290   7.0899981  21.7928147
  29.0241075   7.4799800  22.6594758  29.8164535   6.4258587  21.9165063
  17.5716496  27.6279593  36.6435933  17.1545565  26.8550301  37.0241785
  18.4325194  27.3203230  36.3598752  82.5570679  21.6035604  19.6519732
  83.3386898  21.6635346  20.2012539  82.0085621  20.9504008  20.0864267
   0.2318696  28.3463502   1.3400114   0.5814809  27.4553251   1.3311681
   0.9979951  28.9055347   1.2111801   7.6268497  33.9973106  70.1423159
   7.1936074  34.8009058  69.8546220   7.7672329  33.4993794  69.3369658
  22.7202058   3.9256904  50.6168890  22.2425723   3.4413978  49.9434233
  22.7394342   3.3340621  51.3691139  20.2638626   7.6824474  38.1313300
  21.1983252   7.7082264  38.3371115  19.9920809   8.6002386  38.1364298
  28.3652186  35.5772185  41.8802929  29.0330219  36.1447549  41.4953613
  27.7694917  35.3833747  41.1565781  60.0089312  31.3015628  35.7083249
  60.5014849  32.1189713  35.7822466  59.6070242  31.1854148  36.5692639
  81.4670021  69.1535486  56.8285036  81.6793282  68.2289947  56.7006350
  80.5150421  69.1692389  56.9272804  31.8392539   9.0093303  41.6310167
  31.4478159   9.8671049  41.7960405  31.2614131   8.3920485  42.0796728
  45.6365826  57.3541810  62.0137672  44.7597733  57.6478174  61.7663537
  46.0679689  58.1414475  62.3459534  83.9443309  54.0977860  36.7054272
  83.2911332  53.4164334  36.5462923  84.6752293  53.8675309  36.1318421
  43.5572767   3.4214318  25.2102041  43.9979982   2.5801212  25.0910616
  44.1239309   4.0534264  24.7677970  57.4376535   0.6694651  19.7479939
  57.9673624   0.6525479  18.9509022  57.7464914   1.4400460  20.2244997
  15.2297390   3.5212317  55.5560207  15.7986295   4.0146393  54.9651384
  15.7974756   3.2775366  56.2871313  68.0009217  20.4343964  45.1183496
  68.5036034  20.5098988  44.3072735  68.5701604  19.9396206  45.7077514
  43.9727259  15.4894245   0.2095407  44.6091890  15.4893339   0.9244843
  43.4876060  14.6717739   0.3206332  18.2551384  51.8457174  12.8684771
  17.6131320  52.0224714  13.5560942  17.7867317  52.0217323  12.0524824
  29.4665747  60.9786727  66.1028053  28.5603641  60.6926944  65.9877793
  29.9731339  60.4073276  65.5255751  17.3510754  24.4937325  33.2458854
  16.9663942  23.6421013  33.4531879  16.6477096  24.9744129  32.8094769
  21.2411690  61.7883348  31.9924402  21.6923881  60.9539700  31.8641138
  21.9307184  62.3942995  32.2636580  32.9591894  19.7256696  18.1881475
  33.0527973  18.8153219  17.9075468  33.1413293  19.7066462  19.1276658
  18.7301731  12.0935440  29.2283344  19.3294680  11.5498042  28.7170386
  17.9084039  12.0704973  28.7380338  25.1143551  59.0317202  32.6383972
  25.4877377  59.8367739  32.9971647  25.1572084  59.1499424  31.6894937
  85.6162937  76.9135878  14.5649922  86.1338312  77.6965437  14.7530532
  86.0882218  76.4795352  13.8542795  15.2286720  16.4853776  37.9904985
  15.1061034  16.6587102  38.9238596  16.1169076  16.7900622  37.8049302
  21.2328696  37.7049422  35.2811241  20.3245926  37.6835990  35.5824709
  21.4281273  36.7982006  35.0446367  38.5755118  49.6314653  68.3936970
  39.2429796  49.7249522  67.7140073  38.7912008  50.3077605  69.0358297
  32.2515321  33.2770753  64.0180349  32.6766348  32.5822234  64.5207310
  31.5475082  33.5880303  64.5871449  36.6025591  19.3641031   7.2844106
  36.2706375  18.7428725   7.9325855  35.8583117  19.5258558   6.7046165
  34.4444513  33.1617308  49.1736221  34.5120788  32.2756171  48.8180065
  33.6020398  33.4845591  48.8536930  43.6237097  14.7040391  65.7959318
  44.4479561  14.2847347  65.5488873  43.8824987  15.4117405  66.3862038
  35.7802176   7.5634772   6.6206819  36.6734481   7.2235072   6.6735303
  35.3233004   6.9481891   6.0472018  24.4190621  25.4514074  28.7188697
  24.5167518  24.9664497  29.5383239  23.7277985  26.0886455  28.8986278
  42.9850483  27.2464156  16.2257195  43.6776495  26.6250968  16.4504385
  42.8034067  27.7088428  17.0438886  22.8366852   7.5471419  16.4715934
  22.6820612   7.1000952  17.3037422  23.0692029   6.8461335  15.8626974
  77.7466785  49.7883511  35.2442837  77.1504992  49.0401793  35.2766275
  78.4121721  49.5929956  35.9039712  45.6922436  26.6388655  59.3264008
  46.2589502  26.8800950  60.0591230  45.8887815  25.7160091  59.1653347
  20.7929397  15.4977202  26.7487884  21.3193893  14.9093032  27.2899413
  19.9126387  15.1226437  26.7736816  22.1212538  63.1235338   8.4404278
  22.8699406  62.8897239   7.8917623  22.2411545  64.0551043   8.6249053
  40.7637802  56.4188459  66.2733935  41.4466694  56.2590375  66.9248192
  41.0391155  57.2210171  65.8296119  23.1668091  11.7434072  35.5899477
  23.4242845  12.3985422  34.9413061  22.6215887  12.2242606  36.2126398
  59.5513573  27.0388594  35.0073562  59.2974105  26.5476730  34.2260252
  60.2867260  26.5460875  35.3715549  73.8703885  65.9111764  65.1434944
  73.8122669  65.4608896  65.9861658  73.0085197  66.3104918  65.0253568
  71.2166071  32.1646142  48.9111471  72.1161795  32.1048188  49.2327404
  71.2746382  32.7302194  48.1411076   5.4013151  10.3755033   2.7726674
   4.4978881  10.6425178   2.9422399   5.4516751   9.4781476   3.1019831
  37.7480817  15.8108604  43.3715057  38.0974627  14.9231160  43.2935572
  38.2968807  16.3362241  42.7892303   5.0912386  32.4000740   9.0918565
   5.6263214  31.8804359   9.6917695   5.3203177  33.3077407   9.2915875
  43.8206966  14.5142533  47.8154956  42.8933819  14.7120787  47.6843940
  43.8241632  13.6679436  48.2626878  30.4705286  42.3654127  31.5883088
  31.2039971  42.9479837  31.7854691  30.4019833  41.7982578  32.3563361
  79.7760915  21.4054871  17.5657248  80.6513619  21.0322475  17.4616790
  79.7363543  21.6703725  18.4846854   4.8383185  18.3818984  10.5064487
   4.4032711  17.5932026  10.1825285   5.7677972  18.1537008  10.5214906
  39.3218446  25.3184867  48.8488960  39.2845631  24.7499704  49.6180725
  40.0517797  25.9121346  49.0249920  31.8963456  29.2593169  26.1904025
  31.3150382  28.5094261  26.0640121  32.2356987  29.1522145  27.0789957
   9.8044689  75.9264208  28.4598660   9.2029174  76.4400066  28.9989376
   9.5840700  75.0158555  28.6561537  32.8658152  23.7875128  23.4704518
  32.6072216  23.7472796  22.5497222  32.5876617  24.6565676  23.7595963
  22.1758771   7.9165059  25.6445074  22.7756858   7.4722248  26.2437367
  21.3130188   7.5662345  25.8659077  38.5677791  14.2583358  26.1020851
  38.6923933  13.5137069  26.6904998  37.9370832  14.8183322  26.5546989
  10.6717205  43.7591648  19.0760159  11.2034130  43.3178377  19.7384071
  10.5663610  43.1091022  18.3813596  84.7196453   3.5472992  61.0889482
  85.1023432   2.6777700  61.2059641  85.4647981   4.1109046  60.8807945
  82.9526193  78.0028258  42.7076149  82.1173460  77.6355536  42.4183702
  82.9984600  77.7889062  43.6394787  69.2156593  48.0728750  19.9940933
  69.7004930  48.7698899  19.5521321  69.6166508  48.0149327  20.8613266
  80.6513483  45.3708316  11.5836942  80.2407653  46.0764862  12.0833969
  81.0882814  44.8327137  12.2438109  12.4340153  35.8779192   7.4981397
  12.9850709  36.3535023   6.8765366  11.6287673  36.3930845   7.5472516
  72.4565807  34.3637028  64.0029131  72.9188123  33.8419744  63.3468823
  71.8339696  34.8866399  63.4978156   7.7227074   8.9820296  40.9278679
   8.1456673   9.4870198  41.6223621   8.4442770   8.5428792  40.4776287
  46.4214706  36.1697173  17.4772954  46.8545532  36.5127826  18.2589459
  47.0917988  36.2094283  16.7951572  26.4999199  12.1347642  57.0084286
  26.1805153  12.0823050  56.1076164  26.4604306  11.2338483  57.3294020
   1.3630600  23.3951569  12.4734259   0.6855442  23.9820647  12.1376503
   0.9186764  22.8741956  13.1422698  13.7923098  18.3964109  14.7499907
  12.9607952  18.2053983  14.3160212  14.4157267  18.5119915  14.0328956
  12.9746783  24.5804572  68.6979532  12.4688280  24.2290211  69.4306469
  12.3493290  25.1167345  68.2105350  23.5692263  30.2386522  49.9693108
  23.6787415  30.1490521  50.9159946  24.4619393  30.3028560  49.6299458
  48.3632612   3.1211892  35.6086946  48.9346886   3.8828251  35.7067442
  47.8179169   3.3270714  34.8494554  85.7114370  74.1772450  11.5418303
  85.9581048  73.8015116  10.6967211  84.8231156  74.5073331  11.4070714
  29.2433572   4.8309025  13.8599563  29.2737198   4.2730349  14.6371901
  29.5617652   5.6812441  14.1628885  73.3994961  19.7572768  18.2465601
  72.9650164  19.0018785  18.6425769  73.6548424  20.3036046  18.9899027
  31.1233974  37.0929646  38.9864445  31.4558291  36.6216207  39.7503519
  30.3150511  37.5045586  39.2920589  24.7774696  42.5611973  17.4693823
  23.8746810  42.8667879  17.3809612  24.8166180  41.7708111  16.9308805
  17.7109194  23.6287570  13.1437969  18.6129606  23.5624099  12.8305054
  17.4269533  24.5018578  12.8730750  44.6777248   7.8573388  20.1704240
  43.9372826   7.6149851  20.7265186  44.5238304   7.3897880  19.3494833
  33.0941749  11.0360217   2.7530941  34.0044475  10.9113944   3.0216196
  32.6510096  11.3429606   3.5440582   3.6109431  80.5475916  29.0852857
   3.6170180  81.2589187  28.4448099   3.0910929  79.8579986  28.6724305
  47.0701122  60.3978157  11.8782282  46.1276674  60.4898930  12.0180571
  47.3765564  59.8967457  12.6340389  37.7241182  43.4222174  26.1269379
  38.6461329  43.1744003  26.1955643  37.7093935  44.1075706  25.4588771
  25.1112008  46.5649748  25.8462191  24.2403364  46.7510080  26.1972427
  24.9454927  46.0651302  25.0468922  34.0908313  55.5971956   3.5742354
  34.0015078  55.5288839   4.5248070  34.1322136  56.5383339   3.4045765
  16.6630276  59.9066640  15.4426444  16.0560473  59.1907097  15.6303120
  17.1275385  60.0492431  16.2673438  74.6399767  70.2471424  24.4250226
  73.9490898  69.6295155  24.1853452  74.1718490  71.0370804  24.6953702
  28.4747362  35.6513667   5.9725124  29.1964269  35.4795265   5.3676438
  27.7298355  35.8518624   5.4058081  29.4627452   9.9575877  36.5532780
  29.3533492   9.5471114  35.6955075  28.6207938  10.3787553  36.7263865
   1.8818665   9.1433120  19.1793227   2.6913930   9.6169311  18.9880586
   1.3627816   9.2233288  18.3790863  26.7995858  37.0480251  15.6810939
  27.2846937  37.8714371  15.7349098  26.4101052  36.9423294  16.5490592
  17.4587965  29.1402078  58.5348463  17.9977798  29.9091268  58.3491278
  16.6157985  29.3339443  58.1249046  72.3145023  68.0609729  58.3705805
  71.7647090  68.3724906  59.0895508  72.0059028  68.5463097  57.6054357
  35.1491523  23.8149905  41.3873100  35.0044417  24.7119021  41.0859156
  35.1927829  23.8868308  42.3408127   5.5058378  22.8365302  51.1606359
   4.9592611  22.2839570  50.6019306   5.3276861  23.7286448  50.8629417
  53.7553883   0.7964048  57.3651838  53.1105804   1.0702910  56.7129230
  53.3681965   1.0460070  58.2042408  34.5791531  17.9489958  50.2407551
  34.9467134  18.7947798  49.9842834  33.8380837  17.8204548  49.6487045
  58.7897387  44.9084672  59.7881161  59.6306243  44.4956680  59.5912944
  58.1375709  44.3055400  59.4311999  59.4857874  71.5374520  66.2810604
  59.6256175  72.0025065  67.1059264  58.6232272  71.8285110  65.9852479
   1.9328034  18.0119681  54.1137791   2.5614876  17.4386108  54.5522404
   1.1100867  17.5230241  54.1311741  31.5901732  14.8553801  48.5656214
  30.6452298  14.7121644  48.6185455  31.9271660  14.0720260  48.1308508
   1.0682501  18.7694132  31.3026214   0.8251739  17.9647505  31.7605114
   2.0220238  18.8069880  31.3742852  64.0227842  42.6029968  19.6077204
  64.7874165  42.9848814  19.1767573  63.6187410  43.3359146  20.0722790
   2.0339908  19.5553648  38.2941175   2.9680151  19.3774664  38.1837416
   1.6498169  19.3568826  37.4401593   7.4030405  20.8186698  56.4705372
   7.3477256  21.1092091  55.5601740   7.8430218  19.9698162  56.4247274
  21.8137693  17.7346730  22.1502542  22.1717072  17.2767925  21.3896894
  21.5012145  17.0360875  22.7251625  13.6231287  78.3641065  54.6755266
  13.7026890  78.4970797  53.7309551  14.2270144  79.0003119  55.0586700
  51.2240887  41.8355656  67.1383190  51.7667913  42.5733995  66.8602848
  50.3345585  42.1882439  67.1625137  82.4929411  74.5532913  34.0431881
  82.5038249  75.2012325  33.3387113  81.9197090  73.8580335  33.7203026
   4.9215853  51.0938692  43.0788898   5.6032515  51.6114426  42.6503086
   4.7601163  51.5482569  43.9057446  12.7043152  23.1211400   8.2240933
  11.7833018  23.2494807   7.9971677  12.7106559  22.3281646   8.7601727
  71.6638799  81.8082751  52.7950430  72.0647139  81.5767395  53.6328697
  72.2700937  81.4676339  52.1372461  44.1528893  25.3983951  61.9765759
  44.4055128  25.1945329  61.0761023  43.2182455  25.5981159  61.9237471
  85.9935073  15.6788599   5.9592217  86.2692545  15.7068837   5.0430286
  86.4429313  16.4189136   6.3673526  32.0180178   6.4956963  20.6669497
  32.0219707   7.4426645  20.5274248  31.2864017   6.1786258  20.1373887
  24.4003558  48.9006138   1.3891223  23.8282919  49.3717003   1.9949724
  25.2864671  49.1129684   1.6822857  48.5124568  66.9935130   6.8549837
  48.0907969  66.9582938   7.7135863  49.3571488  66.5624736   6.9851174
  39.6841097  38.9434981  29.5967793  39.2179227  39.3130255  30.3466797
  38.9919043  38.6209106  29.0196991  73.9431157  50.2493181  69.2288710
  73.7187639  50.0142523  68.3285139  74.5698085  49.5794263  69.5022400
   4.9610794  60.1663065  27.2779560   4.6090782  59.9047947  28.1288004
   4.4736087  59.6392632  26.6448450  21.5377116  45.7456541  43.6952305
  22.2393727  45.4733944  44.2866468  20.9401107  44.9982643  43.6725187
   2.9437414  43.8723429  70.5553372   3.6227718  43.4594058  71.0888475
   3.4069267  44.1853019  69.7783245  65.4548682  51.0284162  33.3731389
  65.4491694  51.2745548  34.2981339  65.2885820  51.8473698  32.9063439
  81.5396554   6.4781643  67.3062260  81.5226204   5.7254626  66.7151444
  82.0899732   6.1964442  68.0369894  27.6876473  59.9743223  18.3970118
  27.7359653  59.0185785  18.4183383  27.9043770  60.2049971  17.4936569
  45.4836082  24.8837090  40.2270126  45.6593227  23.9768219  40.4778337
  46.0351229  25.4047704  40.8105898  84.8972964  51.9810534  43.4464693
  85.6401379  51.6008615  42.9775620  85.2650867  52.2746611  44.2799902
  27.8557873  45.6922960   3.8831005  27.6374769  45.5041170   2.9703242
  27.9224706  46.6463947   3.9216202  39.9938107  40.7554150  34.8385143
  40.2351236  41.5073729  34.2976260  40.4298592  40.0115776  34.4228148
  77.4511385  36.1657619  19.6496403  76.7767191  36.7694306  19.3382335
  76.9941759  35.3318048  19.7588646  27.1766520  46.7912245  20.4931211
  26.4665079  46.1602545  20.6106234  26.8781972  47.3580217  19.7818565
  44.5722103  13.5522628  15.0586808  44.9238205  12.9731834  15.7348955
  44.7379208  14.4350684  15.3894746  43.2302427  30.9888291  31.9942307
  43.1356668  31.8269801  31.5416908  44.0059471  30.5899668  31.5999937
  79.5781596  11.3172842  54.9529062  80.2641184  11.9848372  54.9609707
  78.9475424  11.6296889  54.3040965  41.0381460  58.2648516   8.4763455
  41.0446978  57.3905182   8.0868202  40.1385069  58.3848381   8.7804592
  18.6384809  44.3607235  48.7324953  18.0472434  44.1733408  49.4615746
  19.5028722  44.1028309  49.0527296   8.0029767   8.3370446  34.0234590
   7.6760762   9.1525601  34.4033384   8.6674636   8.0340528  34.6422315
  42.5029469  32.5463390  34.6371126  43.3155632  32.9294133  34.3067408
  41.9192362  32.5319552  33.8786244   5.8714946  17.8893496  60.4511188
   5.6578143  17.0182063  60.7853101   5.2495296  18.0313231  59.7375117
  32.8813505  37.9177141  32.6072192  33.5701442  37.5990057  32.0239377
  33.2101607  38.7566566  32.9301596  50.1370335  73.6274385  25.7074523
  50.8313179  74.1306210  25.2819991  50.5447340  72.7874279  25.9181547
  27.1352959  39.2425036  19.0370131  26.6421056  38.4490824  18.8285041
  27.3750973  39.1403532  19.9580407   6.2732714  38.0701232  58.3512211
   7.0868742  38.1444025  58.8499832   6.1300325  38.9468074  57.9946566
  21.0907316  23.1213236  31.9081736  21.3723564  22.9915142  32.8137493
  20.2602339  23.5916901  31.9807076  26.7867208  24.8587966   0.4054112
  26.7824888  24.4591594   1.2751833  27.6903820  24.7661734   0.1036643
  25.6858039  13.2781363  60.1609039  25.2080178  12.8492451  59.4509697
  25.5812216  14.2139256  59.9888802  71.3798857  17.5759590  19.4670427
  70.4929161  17.8240740  19.2063546  71.2533855  16.9200957  20.1526618
  16.6420829  80.7357407  37.0593667  17.5334978  81.0695362  36.9584131
  16.7268360  79.7888470  36.9478226  49.1599369  57.3031139  36.7988062
  48.7692547  56.8593740  36.0460186  49.9126625  56.7600822  37.0327997
  39.9764872  39.2105722  21.2382317  39.3766332  39.9430847  21.3790560
  39.7043610  38.8357878  20.4005480  21.8450236  66.1541700  42.0155573
  21.8906975  67.0368004  42.3831320  22.5835276  66.1091232  41.4082575
  36.1741805  18.4845543  38.8824177  36.9997454  18.3141983  38.4289289
  36.2520480  19.3874538  39.1905427  55.8802652  25.5434227   7.9714054
  56.3498497  25.3274560   8.7770623  54.9955559  25.7650661   8.2619143
  78.4014621  73.3418443  59.8526893  78.9458719  73.9736678  60.3224228
  77.7770248  73.0300357  60.5077349  47.7473021  30.9470010  18.4071410
  48.5605240  30.5592823  18.7305212  47.1093988  30.2345157  18.4481263
  11.9261491  12.9868555  18.0435717  11.9759870  13.6489606  18.7330389
  11.1268556  12.4976540  18.2386184  65.0930119  46.4634895  20.4840732
  65.1758862  46.9803524  21.2854576  64.3532705  45.8794594  20.6511664
  32.7689958  32.0428991   1.6945907  33.2161307  31.3124275   2.1220402
  32.3969436  31.6632080   0.8985732  28.5118318  41.1580944  37.3793674
  27.8245234  41.6061592  36.8863392  28.3417892  41.3901472  38.2923126
  20.5018640  34.9282861  14.0061283  20.0565124  34.2608190  13.4842241
  20.0366473  34.9280596  14.8426723  40.0174332  16.6993558  11.0492122
  39.4531369  17.4718809  11.0174990  40.8361340  17.0162773  11.4306819
  35.7380533  31.0707974  22.2396183  36.5778995  31.0436392  22.6980448
  35.0891876  31.1803865  22.9347396  10.3426376  60.2895834  69.2474042
  10.9865490  60.9895279  69.3554924   9.6111074  60.5484738  69.8078246
   5.7622019  59.6666159  58.4187995   5.1298109  59.5701482  59.1308425
   5.2267042  59.7039165  57.6262830  34.2369199  45.2915335  32.8638935
  34.6384835  45.8229637  33.5513210  34.2776251  45.8414507  32.0814848
  24.5879102  44.9071836  23.9972591  24.4737673  45.3246832  23.1435061
  24.8795485  44.0188122  23.7923741  15.0858200  47.5377846  47.4859810
  15.7010865  46.9430494  47.0570707  14.2384458  47.3309422  47.0917702
  31.4092517  17.1882796  16.7963850  31.5699005  16.6522563  17.5729823
  30.4968119  17.4649489  16.8808830  41.8534184  46.0114288  31.5266991
  42.1391630  46.8249369  31.1110282  42.0319939  46.1426878  32.4578905
  66.8792882  40.2277699  63.8232385  66.7356100  39.3124070  64.0634458
  66.0080185  40.5570975  63.6026435  14.0375328  35.0224066  21.3406491
  13.1484282  35.2184343  21.6361141  14.3094325  35.8060765  20.8629823
  21.2428641  44.1150951  23.2767391  21.8325257  44.5309591  23.9056969
  20.9479308  43.3174801  23.7161160  24.1837764  33.5830164  18.3384812
  24.1477561  34.2607594  19.0134621  23.2714796  33.4552217  18.0784583
  20.3890657  64.0016794  46.7231321  21.2936997  63.7128353  46.8432903
  20.4197407  64.5718956  45.9549236   6.3981211  51.0387802  23.0755568
   7.2401160  51.1583376  22.6362586   6.6211236  50.9581470  24.0029168
  22.7081800  51.3450146  12.8926945  21.9986010  51.7137241  12.3665941
  23.0062079  50.5845737  12.3935556   0.5215072  41.6185522  29.6348715
   0.8699305  41.3598824  28.7816858   0.6505655  40.8491945  30.1895428
  39.4029379  45.9805584  34.9778771  39.4642377  46.1602926  35.9160519
  40.2652264  45.6378651  34.7428203  52.9692173  54.3102646  18.1472504
  53.7112904  54.3531561  17.5441575  52.8608704  55.2091122  18.4580040
  17.7618897  18.1468511  14.8286855  17.0170629  18.3300662  14.2560625
  18.0034816  19.0005434  15.1879549  78.9708447  58.4812260  51.6316128
  79.4066548  57.6632357  51.3924694  78.7064123  58.8650370  50.7955503
  72.6452553  52.6681852  29.2521930  71.9194459  52.4342871  28.6736417
  72.7814710  53.6032629  29.0995312  28.0873775  47.9719877  10.6869817
  27.2556067  47.6009989  10.9815264  28.0760145  48.8726330  11.0109282
  64.3352413  40.3658533  17.8894615  63.6173200  39.7440815  17.7702367
  64.0034985  40.9947348  18.5303116   5.7425094  51.5469027  11.6646731
   5.1575243  51.0762691  11.0709333   6.4031613  50.9001255  11.9125664
  26.9189858  43.8168478  29.3121696  26.9457984  44.5010138  28.6432719
  27.5221133  43.1457424  28.9926600  51.1806107  26.9098496   5.4458076
  50.8923674  26.0335922   5.7013828  50.9815884  26.9643354   4.5111138
  54.8465347  16.2113571  22.2060156  54.6747541  16.1130321  21.2695026
  55.1383543  15.3445303  22.4882984  41.2762260  37.9732680  33.7913632
  41.6583109  37.2183108  34.2388940  41.0885382  37.6578951  32.9073119
  28.0350661  62.7434349  53.2685661  28.5797286  62.6667404  52.4851799
  27.1704197  62.4421549  52.9895592   8.8139182  47.1040916  22.1145225
   8.6574548  46.4956284  21.3923550   7.9605639  47.5053978  22.2787499
  30.1317501   0.7231120  18.2370424  29.2186809   0.7743187  17.9543531
  30.5480099   0.1439686  17.5986421  41.0320950  33.1547523  39.1337419
  40.5528831  32.3377919  39.2721629  41.7159033  32.9275131  38.5036612
  61.1662450  55.0644495  66.8709044  60.8430496  55.5477657  66.1105214
  60.6630888  54.2501643  66.8686975   5.7362068  26.9154024  47.4544191
   4.8743540  27.1804929  47.7756166   6.0746503  27.6916289  47.0081425
  40.5167198  45.3379297  37.3579907  41.4304113  45.5543566  37.1720815
  40.4387712  44.4116211  37.1297073  28.4576321  26.5863657  23.0124450
  27.7097321  26.0061455  23.1546521  28.0694342  27.4537539  22.8976822
  30.5453873  37.2725534  10.1829529  30.4008865  36.7047334  10.9398746
  30.0019407  38.0418634  10.3534317  14.0226305  32.6941156  14.8038220
  13.9258766  33.6456299  14.8424602  13.3208215  32.3591471  15.3619373
  10.4156709  77.8407574  13.6089015   9.7209948  78.4025955  13.9523995
  11.2257302  78.3041334  13.8217807  30.1734281  43.1458426  13.5940850
  30.6557155  42.9408455  14.3950891  30.5542493  43.9694595  13.2893550
  39.8964000  52.9632425  15.6249213  39.9996209  52.2237062  16.2238026
  40.1942778  52.6295328  14.7786725  30.9753108  52.7671146  12.5551784
  31.2054062  51.8775272  12.8233564  30.7089639  52.6800203  11.6399157
  63.6715889  33.6787987  46.5124464  63.9845181  32.7807713  46.6213274
  62.9358196  33.6040258  45.9047556  73.2018990  69.1811503  29.0417862
  74.0420313  69.2932070  28.5969782  72.5642199  69.5881463  28.4553123
   4.9144313  23.4387112  32.4801064   4.1667834  23.4197354  33.0775118
   4.7856331  22.6798820  31.9110513  64.2555277  52.4805711   5.6786551
  63.4793679  52.1311389   6.1164965  64.7722594  52.8716229   6.3831391
   6.7896143  63.4735825  65.6088005   7.5360790  63.1648066  66.1222957
   6.4561430  62.6882603  65.1748685  35.5663013  76.2752628  17.9103434
  36.1791730  76.9734526  17.6798022  34.8853087  76.7132521  18.4208822
  18.1990564  44.7006464   5.2680051  19.1332662  44.8298168   5.1043046
  18.1651258  44.2175055   6.0936302  23.8511825  25.0329280  36.6167021
  23.9974475  25.9289718  36.3134766  23.3761120  24.6121264  35.9001350
  42.1939898  45.6277895  34.5838523  42.6454449  46.0457468  35.3171539
  42.6874685  44.8229074  34.4261527  29.5983648  44.4018269  18.0019784
  30.1541615  44.1261196  18.7308872  29.9809170  45.2287340  17.7085280
  26.8367648  58.7388611  42.7082396  27.3682117  58.1042337  43.1889105
  26.8634844  58.4352350  41.8008614  80.0457826  65.0753715  70.5073030
  80.8960023  65.4003646  70.2110985  79.9480071  64.2286780  70.0716664
  42.0289183  49.6070766  18.9341652  42.3277760  48.7869072  19.3268967
  42.1144152  50.2533674  19.6350431  35.8484292  66.2424040  37.6740217
  36.4779687  66.8130016  38.1148505  35.1589298  66.8340731  37.3727775
  32.3427081  25.8074808  18.7578762  32.6633525  25.5356860  17.8979075
  33.0331564  26.3735175  19.1030097  83.0679389  55.6604767  53.3403254
  82.3022338  56.0040426  52.8800106  82.9110503  54.7178507  53.3958006
  20.8617544  60.4397345   6.9397265  21.5526223  61.1022568   6.9397271
  20.3589559  60.6180048   6.1449653  48.4127657   9.2131375  21.7384648
  49.2347185   8.7245416  21.6948605  48.6005263   9.9458837  22.3250294
  61.0615206  46.6738749   7.8477961  60.8174610  46.2537050   8.6724913
  61.2523794  47.5805235   8.0882078  24.5886326  39.1022301  43.3642101
  24.7423434  38.3013368  43.8653851  23.8149643  38.9087391  42.8348446
  41.0313225  46.5982246  28.2241082  40.0852680  46.7413998  28.2508922
  41.4017010  47.4700689  28.0864906  41.4843464  33.9234543  32.1097207
  42.0102406  33.5503268  31.4022994  41.8957996  34.7677588  32.2943449
   7.7652264  17.3513877  41.3112926   7.2599280  16.9815350  40.5873346
   8.4008068  16.6705883  41.5321589  41.1313772  66.8224335  37.5074100
  41.7372370  66.1810064  37.1362782  40.2726316  66.4040279  37.4463964
  51.5145063  60.5872297  33.1138754  51.2940693  60.7327223  34.0339136
  52.0362568  61.3514137  32.8688526  65.7016603   7.7048635  23.9953828
  65.6527273   8.5491132  24.4438076  65.1423327   7.1258496  24.5131946
  71.9092369  68.3039761  44.4695234  71.5423441  67.4457979  44.2570353
  72.5867605  68.1203365  45.1202679  74.4317198  67.6682234  20.0909662
  73.5835028  67.4758625  19.6912742  74.7010946  68.4966326  19.6942139
  47.1479988  66.2876940   4.3998325  46.3999653  66.8528938   4.2068985
  47.6969099  66.8086243   4.9859729   0.0405591   4.7634934  60.1208591
   0.1264327   4.4432019  59.2229319   0.8479970   5.2526712  60.2789068
  33.1776404  43.9657974  21.9223738  33.6365032  43.1382847  22.0669389
  33.1235242  44.3645620  22.7908731  65.1711750  34.7835159   8.3878237
  64.7969723  35.1572871   9.1856331  65.3023434  33.8583493   8.5954195
  73.4456301  41.1019754  48.6302423  72.6811934  41.4419603  48.1651878
  74.1945982  41.4425516  48.1410742  45.7000732  80.5507565  12.9634881
  44.9550724  79.9977016  12.7282357  46.0513592  80.8489609  12.1245003
  23.1227636  46.6177130  49.1526604  23.1820297  47.5000238  48.7862539
  24.0190578  46.4060116  49.4135618  39.9011159  75.9638119  41.3432264
  39.1685963  76.5533781  41.5222740  40.6096506  76.5414619  41.0594511
  47.1021891  79.5397758  25.9370971  48.0099010  79.8226738  25.8263707
  46.8390179  79.2340374  25.0690556  52.4358177  70.1112843  32.7689910
  51.6595173  70.6653404  32.6876616  52.8304195  70.1223898  31.8969822
  20.5181193  75.1819515  -0.0324036  20.1863861  74.7588873   0.7595583
  21.1470008  75.8289576   0.2871620  34.2996407  72.7616119  34.1226220
  34.3565226  72.8281689  33.1694341  33.4593225  72.3322296  34.2830133
  47.2115517  79.9582815  17.6394653  47.5018549  79.8320293  16.7361307
  47.5026941  79.1695690  18.0970597  40.7316113  37.3181343  18.9378107
  40.6516409  37.2650313  17.9854369  41.1607361  36.4999533  19.1881239
  42.2092247  53.5770226  18.1660831  42.3538637  53.6872053  19.1058552
  41.2828875  53.3477306  18.0915833  13.9202666  53.0185223  43.0689716
  13.8771451  52.9661274  44.0237617  13.4258187  53.8082981  42.8498650
  86.3937378  28.1197906  48.2499504  86.9153976  28.5484767  47.5714731
  86.7277622  28.4792590  49.0718031  65.3076363  52.3696136  15.8393884
  65.3928041  51.5196133  15.4075575  66.0281277  52.8911972  15.4857242
  40.1231861  78.3982468  37.9610372  39.3621087  77.9302692  38.3045340
  40.0954103  78.2406187  37.0173120  52.6076269  51.0052347  56.6586256
  52.2767115  50.1291275  56.4607239  52.7144527  51.0117054  57.6098204
  70.7304239  78.9746094  14.4326985  71.6096926  79.3473864  14.3682539
  70.4436350  79.1894913  15.3202868  51.5433264  56.5199614  50.0992489
  51.7456102  56.0281134  50.8951092  50.7803726  56.0750866  49.7301674
  69.3629169  59.1606522  10.7729471  69.0236664  59.3509865  11.6475415
  68.5921335  59.1873932  10.2060127  61.5885258  68.1822729  42.3300552
  60.7931376  68.0498219  41.8142605  61.2831926  68.2164192  43.2366085
  68.7586880  46.3516665  56.1893654  68.4059095  45.4853392  55.9862375
  68.0704927  46.9598007  55.9195614  51.6331768  63.6374903  49.1859961
  50.9096003  63.7474728  48.5690832  52.2706032  63.1012917  48.7143898
  74.6414606   1.3382386  47.8931475  74.8269693   0.9031819  48.7253380
  73.7091438   1.1813401  47.7434635  53.1246726  29.9888276  29.7204900
  53.8030331  30.2952622  30.3222895  53.2583420  29.0423059  29.6708179
  53.7159689  31.3375021  68.2764520  53.1122644  32.0375563  68.5248645
  53.1762560  30.7195259  67.7834536  10.5922377  76.5637350  25.1548600
  10.2101445  76.0473919  25.8645272  11.5367234  76.5086985  25.3002834
  32.2432113  52.5799417  41.4708757  31.4416480  52.2703934  41.0490847
  32.5671744  51.8209124  41.9558048  27.8450799  74.9107170  30.7479858
  28.2235980  74.4582701  29.9941635  28.5973644  75.1326275  31.2966704
  35.4424930  38.5564184  35.3598285  36.3432860  38.5079551  35.0397372
  34.9294066  38.8124275  34.5933890  50.4206133  77.2786045  59.1624212
  50.4446316  77.6892948  60.0267076  49.6386099  76.7269230  59.1810369
  80.2548122  35.1975417  40.9035158  79.3762922  34.9565411  40.6096601
  80.6421185  34.3742847  41.2009621  64.6699397   6.5261029  21.6542101
  64.4822518   7.2617292  21.0712266  64.5843546   6.8907212  22.5350976
  37.0160818  38.3681965  27.5633192  36.2532043  38.3185697  26.9873095
  37.2151303  37.4564576  27.7762651  32.7474594  55.1269674  20.5811501
  32.6450324  54.2125893  20.8450818  32.2378612  55.6203127  21.2239194
  44.7181511  81.6406059  42.6843262  43.9835453  81.1834812  43.0937386
  45.4960346  81.2155056  43.0454588  62.1369934  74.8078203  29.0108681
  62.7135563  74.4636488  29.6930361  62.6972866  74.8812151  28.2382655
  35.3163791  24.6355247   7.0718819  35.7705736  24.3303394   6.2865144
  34.7374320  25.3305721   6.7588925  49.7019871  41.5948368  70.0226491
  49.0805634  41.5473534  69.2961465  50.2554472  40.8212735  69.9153699
  67.8069782  72.4058914  24.7086477  66.9466209  72.0216179  24.8770332
  68.2789850  71.7315960  24.2200112  53.7488699  61.0036993  24.6745634
  53.0807972  60.4422474  24.2812562  53.5536766  61.8789005  24.3396688
  24.9300981  61.4043045  15.4013097  25.3313088  60.7719326  14.8051858
  24.1520405  61.7116928  14.9361539  43.3274698  52.4871778  54.3883467
  43.2290077  51.8737173  53.6601973  43.7414789  53.2571507  53.9985180
  82.4833679  36.4268947  39.5211983  81.8683910  35.9534001  40.0814199
  82.1928406  36.2337828  38.6298323  44.4387722  70.5087185  19.5624280
  44.2907524  69.6768713  20.0122714  44.5511246  71.1458349  20.2678990
  73.2016087  36.0587478  65.9923744  72.9817867  35.4047179  65.3289366
  72.6261663  36.7988253  65.7990265   1.0721057  66.9068788  11.8247475
   2.0272153  66.9353365  11.7682995   0.7771151  66.9468568  10.9150089
  45.5478954  71.9722939  67.7843571  45.3496647  71.2689590  67.1660852
  45.9081507  72.6737213  67.2417259  75.2592754  62.0896053  18.1292033
  75.9047985  62.0698833  18.8357055  75.3493738  62.9624414  17.7467465
  19.7803617  62.6321268  20.8299470  19.1129100  61.9816113  20.6118321
  19.2881525  63.4392214  20.9801412  39.8182209  16.1477543  70.2788368
  40.6276329  15.6865956  70.4988702  40.0743778  16.7694451  69.5975775
  22.5779986  72.2270441  24.4969678  22.7472687  72.9134417  23.8516521
  22.4074578  71.4435768  23.9741611  36.3566303  70.2638578  36.4570117
  36.4525628  69.4966555  35.8927155  35.7176876  69.9967623  37.1178031
  11.8759457  63.1481411  49.0680276  12.6788345  63.3242395  48.5775243
  12.1652905  62.6424148  49.8274718  70.2150393  29.4320464   5.5040878
  70.6263971  30.0079942   4.8596501  70.5902386  29.7033882   6.3418418
  51.5847349  49.9487829  10.7869339  51.9648504  49.1624260  11.1785793
  52.1748066  50.6557178  11.0482574  55.6347799  49.4577551  43.2624006
  55.2416229  48.7114668  42.8099537  56.1616182  49.8935413  42.5925016
  25.8004339  35.2575900  59.7197805  25.6539209  36.2027241  59.7583721
  25.0008591  34.9071003  59.3272577  56.9957638  77.0287991  31.8157291
  56.7733479  77.4033928  32.6680446  57.8764009  76.6725302  31.9331288
  40.7857132  68.2048082  33.2478762  40.8206463  68.5703659  32.3639202
  39.8540735  68.1976938  33.4674788  45.2972889  58.0732870  16.1574209
  44.5957851  58.7069511  16.0071123  45.9604073  58.2901430  15.5020738
  17.6110594   4.4689321  20.2749109  18.1085341   3.6548852  20.1969194
  16.7102807   4.2199182  20.0679708  17.4179452   9.1023301  56.5619469
  16.6655867   9.2562055  57.1333551  18.0103200   9.8317765  56.7442608
  36.8972754  72.5354576  46.0564327  36.2418652  73.1300449  45.6915474
  37.7242351  72.8248501  45.6709099  31.7159851  21.4373995  65.1751797
  31.7789276  21.3453413  64.2244981  31.8943317  22.3635556  65.3384595
  63.7046576  53.6547136  34.4510698  62.7954960  53.9107418  34.6063304
  63.7215757  53.3742332  33.5360408  69.5764208  53.2511139  31.1966634
  69.4162416  52.6510668  30.4682994  69.1244030  54.0570450  30.9468818
  69.7309963  23.1781625  44.9074841  70.2138178  22.5690507  44.3488264
  69.3743889  22.6304673  45.6068325  51.3308947   8.1062841  21.9857597
  50.9197132   8.0733823  22.8495193  51.8565337   8.9061021  22.0010281
  50.4232931  64.2723131  51.5228605  50.8748817  64.2410707  50.6794596
  50.6145334  65.1456928  51.8647289  84.9749470  60.9347916  17.0371377
  84.0443611  60.7115269  17.0170152  85.3710175  60.2609968  17.5897312
  43.6700153  60.0885296  36.0748458  43.9868641  59.1854715  36.0929441
  42.7241611  60.0130653  36.2009168   8.3703805  62.6397896  27.8263307
   8.3728123  61.7047691  27.6214743   9.0061856  62.7311563  28.5360026
  76.4800930  75.9873915  21.1197615  75.5489111  75.7694197  21.0794663
  76.5026426  76.8782616  21.4691496   7.7910273   4.0039395  32.0722365
   7.5760453   4.2961072  32.9580426   6.9524186   4.0013169  31.6107583
  34.4868517  77.9527807  24.3941140  33.8507676  77.7359295  25.0757337
  34.8702359  77.1110296  24.1477442  13.8602830  43.5993576  37.9314637
  13.0873585  43.2281637  37.5059724  14.3893529  43.9413786  37.2108173
  42.1366596  75.2813101  29.4129133  42.1681118  75.4852295  30.3476119
  42.0500469  74.3286610  29.3783879  76.3373034   3.5786676  23.9222383
  75.7852451   3.1952333  24.6037388  75.7548992   4.1719579  23.4478498
  55.1794815  80.6570530  45.2175903  55.9657621  81.1865997  45.0850296
  54.4546986  81.2719917  45.1045656  56.8021822  52.1626282   1.0480833
  57.2150755  51.3428736   0.7765086  55.9260511  51.9057703   1.3355634
  55.0416756  32.7344704   9.3404484  54.8779917  33.1196856   8.4796065
  54.1709471  32.6204491   9.7213125  30.9362030  72.0521355  30.1595306
  30.4931092  72.0004654  29.3126369  31.6822863  71.4583063  30.0761199
   2.9781111  34.9713541  56.2919579   3.5520514  34.3762041  56.7742549
   3.2700785  35.8460785  56.5485535  51.4848709  51.0736179  39.5999956
  52.0432091  51.0529089  40.3772068  51.0212564  50.2363348  39.6157598
  15.0240422  58.5236931  38.3309650  15.7351876  57.9614210  38.6381412
  14.6591664  58.0586433  37.5780845  81.3871574  69.7599936   6.4037132
  80.4909706  69.9495888   6.1260009  81.7091751  70.5895376   6.7564142
  56.4561367  47.6111317  51.4716768  56.6127968  48.5546446  51.4332294
  55.6903744  47.5183916  52.0384550  65.7175779  60.3041553  49.6188593
  65.2933311  60.2463627  48.7627602  65.0213051  60.5847263  50.2127600
  60.7582521  78.2845640  30.5503583  60.5387402  79.0652895  30.0419116
  59.9119806  77.9332590  30.8271933   9.3641282  60.2326345  25.3040743
   8.6064530  59.7267294  25.5977011   9.5059586  59.9491692  24.4008780
  53.2890081  51.1756754  41.6988468  53.2785225  51.4933586  42.6017284
  54.2177582  51.1301374  41.4717340  52.5482368  65.9584665  28.7595081
  51.7130136  66.4083910  28.6322284  52.9660845  65.9810543  27.8986216
  48.0244391   0.8860635  26.1788654  48.5252707   1.1300229  26.9572473
  48.2581465   1.5467595  25.5268764  47.6311302  61.6966391  33.2163167
  48.2587910  61.6009760  33.9326429  46.7989683  61.4015865  33.5860181
  76.4153719  53.7709665   4.6560928  75.9435797  52.9427671   4.7439954
  76.8465948  53.8919258   5.5020547  59.3498087  66.9927263  41.0692024
  58.7547636  66.8337154  41.8019152  59.3811846  66.1585760  40.6007576
  67.2832870  52.4399424   5.2866542  66.8015909  51.9061041   5.9184909
  67.0343161  53.3404446   5.4948318  57.3358870  79.4935036  46.3930321
  57.6522827  79.1194057  45.5707312  56.4009857  79.6375370  46.2465858
  31.6693314   9.1884829  63.2986496  31.1383636   9.3088938  62.5113718
  31.4809759   8.2931496  63.5799520  71.5054560  74.0244675  20.4409075
  71.1838913  73.7698841  19.5760298  72.1957159  74.6628714  20.2614188
  61.5880203  76.2230682  35.5947828  61.4705467  77.1703863  35.6655836
  60.7562733  75.8555698  35.8937335  81.5867996  80.4548645  42.6713228
  82.1129036  79.6796036  42.4753141  82.0865345  80.9200954  43.3421898
  26.3083172  76.4581299  34.9460101  26.4244556  76.6215181  34.0100360
  25.9734154  75.5626631  34.9930787  49.7505243  30.3106810  64.4877647
  49.1336163  30.9910323  64.2179756  49.4614180  29.5265223  64.0211378
  36.7882975  49.1292454  65.7530616  36.0638245  49.4708992  65.2289967
  37.3954018  49.8651673  65.8310352  48.5579824  63.0684137  53.2182837
  48.9204979  63.3403826  54.0614033  49.0822697  63.5378981  52.5694895
  64.8305130  54.5093822  39.9067903  64.5315313  55.3988218  39.7177362
  65.1996088  54.1998768  39.0796256  22.7543967  31.3308953  63.8823223
  21.8526595  31.2688779  64.1973686  22.7200835  31.9861363  63.1853867
   0.5700589  77.1490097  44.4372988   0.7795430  77.9151201  44.9715567
   0.2929497  76.4851713  45.0687695  63.0615330  66.0357332  41.9753456
  63.7927103  66.2210798  42.5646305  62.4964666  66.8051577  42.0454216
  74.3347359  78.5880804  35.1127815  74.0050364  78.0635262  34.3831444
  74.6921396  77.9465342  35.7267165  47.7845430  46.9567299  11.4882386
  48.3416271  47.6118565  11.9085884  47.9716730  47.0471668  10.5538762
  57.5608969  49.8341465   8.0203235  58.3946371  49.5971203   7.6142049
  57.8052664  50.2183104   8.8623053  63.6255312  57.0505238  38.7787437
  63.2080555  57.8196287  38.3908916  64.4564819  56.9675589  38.3109093
  53.4227848  56.4431953  11.1659765  53.3300066  56.8426514  12.0308805
  54.2776299  56.7411327  10.8550048  26.5760286  13.7152840  70.0413316
  27.1386250  13.9670159  70.7736892  26.0101660  14.4746329  69.9019755
  62.9441214  43.7243319   9.9999964  62.3524284  44.4766474   9.9874830
  63.1383085  43.5877419  10.9272861  54.3293818  21.2440230  45.9419475
  54.9788149  21.5291525  45.2991591  54.1495092  20.3323151  45.7124601
  36.0210347  48.9445257  18.7677479  36.0657620  49.0673113  19.7159863
  36.6462135  48.2424927  18.5873878  73.9577103  53.0548525  42.6434374
  73.3189440  52.5976515  42.0964622  74.8032284  52.6939249  42.3768663
  14.7085135  15.6344270  11.4755595  15.6157725  15.3585195  11.3452089
  14.5301430  16.2247037  10.7434428  14.3363225  62.5623560  25.9085393
  14.1655004  63.1378078  26.6541314  13.5229659  62.5761366  25.4040670
  19.4428151  13.7848519  45.1186180  19.6774905  13.0735444  45.7146025
  20.2109234  13.8902234  44.5572424  78.1640331  21.2514352   3.3944297
  77.9361860  22.1799802   3.3484492  77.4029772  20.8379602   3.8019544
  67.9165268  34.5529079  49.9159241  67.9242754  33.5970783  49.8653364
  67.0984077  34.7622776  50.3665638  69.6282101  42.6674414  14.4231021
  69.0832949  43.3718061  14.7740567  69.9419069  42.1991634  15.1967549
  59.8016930  61.0168457  40.4025078  59.6722555  60.0757122  40.2852535
  60.1950550  61.3087988  39.5801568  43.3532302   1.3415956  56.7843485
  43.7469522   1.7241620  56.0002184  42.8822069   2.0671319  57.1941948
  83.0346434  14.8190927  41.3514471  82.3738758  14.4963788  41.9642067
  82.7741568  14.4557523  40.5050611  18.6832850   1.9429063   1.3655278
  17.7502148   1.9456719   1.5790944  18.8570683   1.0516023   1.0628669
  38.6932285  35.8582808  50.9793673  37.7688606  35.6611945  50.8279239
  38.6996944  36.7719294  51.2647365  84.4263840  53.9839745  40.0471687
  84.2626476  53.4096718  39.2991042  85.1859474  54.5052338  39.7871995
  43.1647062  59.6850872  15.7530820  42.5823641  58.9666462  15.9999716
  43.0060291  60.3597069  16.4133382  62.9066150   3.7018727  37.0324421
  62.4370543   3.8893842  37.8452063  63.3206932   2.8525590  37.1855307
  63.9624651  11.2736393  52.3535143  63.9327581  12.1444537  52.7497898
  63.0499800  10.9847714  52.3413430  60.9016466  52.9368973  13.9739418
  61.3714457  53.2396221  14.7510397  61.4631510  52.2550774  13.6050725
   2.1380417  15.6963491  16.1815274   1.2906258  15.5163621  16.5886152
   2.1629565  15.1219319  15.4162455  22.9530621  71.7328835  51.5748310
  23.6063100  72.3488855  51.9065475  22.1696568  72.2654581  51.4374542
   3.1595326  69.1305494  11.2856042   3.4886361  69.5276833  12.0919585
   2.6849366  69.8367786  10.8471668  65.5446243  63.3306170  60.8613014
  65.0523233  63.1177902  60.0684738  66.4384031  63.0449152  60.6721735
  43.4872158  37.6605917  69.6174917  43.5292633  36.8793608  69.0659957
  42.7183826  38.1354739  69.3018778  61.6538572  64.0558863  15.5991638
  62.4856758  64.2869568  15.1857495  61.9042349  63.5969257  16.4009738
  46.1620049   5.7918023  50.8066320  45.7225816   5.4752397  50.0173759
  45.5451076   6.4148377  51.1906815   4.9687291  44.2889643  49.4052553
   4.0787507  43.9464760  49.4882059   5.1942254  44.5859194  50.2868462
  63.1485844  53.5736799  42.1344519  63.6097527  52.7477217  42.2805548
  63.7238121  54.0693235  41.5516281  62.1405840  49.3983459  40.6226492
  61.7897987  48.6826658  41.1527300  63.0361891  49.5146370  40.9398270
  77.6132107  49.2665243  26.2646961  77.4131632  50.1904154  26.1142612
  77.3908997  48.8358402  25.4392719  74.8347521  68.1585598  33.5600257
  75.4590607  68.8298178  33.2845688  74.5750237  67.7250051  32.7471280
  49.6243429  64.2599726  36.3956356  50.1747894  63.7319565  36.9739389
  50.1335764  65.0555706  36.2409115   0.0720446  32.2396516   4.7130910
  -0.1113040  31.3017320   4.7671553   0.7859223  32.3079919   4.0791053
   0.2274037  64.9998379  52.3871231  -0.7021808  65.1393461  52.2064400
   0.6564236  65.7900381  52.0588636   3.9318793   3.0750035  10.9663367
   3.0099623   2.9933404  10.7221389   4.1123812   4.0133428  10.9099257
   3.2401467  57.3851919  14.1910195   2.9655743  57.9468489  13.4661865
   2.4210835  57.0747948  14.5770586  67.8616898  15.4690503  27.5913882
  67.4195592  14.6216344  27.6427913  68.7388937  15.3028535  27.9365253
  58.3921909  67.3878527  36.8590713  58.8165951  67.9180479  37.5336099
  59.0580893  67.2879505  36.1787510  58.8857762   1.3634633  65.6609821
  58.2515280   0.6686544  65.8375978  59.7104804   0.9019708  65.5089474
  62.3822165  68.3637524  29.4185138  62.2094870  67.5003433  29.0431190
  61.5933847  68.8707018  29.2262077  75.6796741  70.7192278  30.6344557
  74.9828196  70.0820875  30.4773831  75.8174849  70.6948900  31.5813708
  48.0069113  32.8726530  21.3134432  48.7757683  32.3065233  21.3811350
  47.9825401  33.1344700  20.3930688  26.0035467  60.8363152  36.3294959
  26.1535406  61.1556959  35.4397058  26.7734838  61.1238670  36.8201542
  83.5921328   8.9874219  35.7053852  84.1741888   8.4934663  35.1279354
  83.1737034   8.3211469  36.2505770  39.9682355  56.3516283  19.0353596
  39.4985962  57.1777964  19.1498876  39.5848465  55.9653473  18.2479393
  57.4055862  30.2982664  13.0617964  57.7894354  30.6488466  13.8655269
  57.8075075  29.4354081  12.9609680  71.3563251  69.1289330   3.0537263
  72.2438812  69.4650841   3.1781572  71.0711002  69.5077944   2.2222558
  51.7608070  73.5879374  40.0477600  52.4596071  72.9604721  39.8628330
  50.9973097  73.0450916  40.2442741  19.3190157  29.9423313   5.1225895
  18.6280465  29.3925047   4.7531566  18.8693738  30.7431555   5.3922838
   6.7530720   1.4268064  25.3366661   6.8233149   2.0403909  26.0679746
   6.2715762   1.9092607  24.6646309  84.4699137  11.3965177  24.4604897
  85.3184263  10.9561967  24.4117832  83.8683645  10.7228993  24.7776747
  41.5090370  47.6094007  22.3388553  42.3018551  47.6667786  21.8055844
  41.5334034  46.7274618  22.7101016  74.0715027  55.3649092  65.5932570
  73.5325956  55.6154633  66.3436127  73.4510803  54.9931622  64.9662638
  52.7190828  81.8128490  43.9090252  52.2108984  81.0310268  43.6928368
  53.2261848  81.9952202  43.1179380  63.4457199   4.3692063  17.2953546
  63.0812590   3.9668798  16.5069818  64.3122046   3.9730977  17.3877311
  15.2824824  11.5098809  25.7548833  15.9020846  11.3427018  25.0446868
  14.8400443  12.3198365  25.5010271  13.7336629  35.5261563  27.5320077
  13.6178963  34.8785829  28.2273364  13.2038825  35.1958226  26.8064427
  15.3521952  38.7205098   0.0338282  15.6791958  39.0793488   0.8587755
  15.6731925  37.8188298   0.0208964   6.8333164  79.5846631  65.3533111
   7.6611820  79.4400790  64.8950885   6.2178389  78.9856770  64.9306606
  37.7037096  77.0753670  38.6148500  37.5389838  76.1866665  38.2997179
  37.6563764  77.0040464  39.5682168  35.6121691  43.5440422  67.6927866
  35.6515606  44.0778614  68.4863345  34.6776255  43.4720589  67.4986948
  72.2923613  52.1786690  40.7091427  71.4771461  51.6776848  40.6831598
  72.2353697  52.7680349  39.9570584   2.2506524  52.8305578  65.5253172
   2.4596978  52.9515266  64.5990896   2.9880047  53.2253361  65.9908199
  59.2024946  62.3615932  42.7539778  59.4684029  61.8396378  41.9969511
  59.9528551  62.9296112  42.9287481  19.4529725  72.1409988  24.4262433
  19.4844533  72.8486013  23.7823987  18.9069844  72.4846888  25.1333499
  36.0671099  23.5692574  67.7967419  35.2707298  23.7421442  68.2988556
  35.8933027  22.7409007  67.3496984  35.6514883  32.8406334  25.2536297
  35.5412769  31.9027209  25.4098654  35.6034851  33.2357216  26.1241651
  51.4225960  69.0372610  48.6662579  51.2436390  69.3484068  47.7789021
  51.7679167  68.1528139  48.5448551  59.2015362  57.0793295  28.0334353
  59.2842722  57.0852995  28.9870334  59.7753668  56.3684845  27.7476835
  53.1710482  74.1899872  49.3872118  53.0666304  73.3356524  49.8060656
  53.5787868  74.7374725  50.0582123  48.3445692  46.5017176   3.1900159
  48.0541849  47.2810411   3.6638978  48.6943913  45.9249401   3.8691232
  81.7386150  48.0650759  32.8333902  82.0236206  48.2355261  31.9356441
  81.3972950  47.1710825  32.8106689  70.7210398  47.6310635  38.3516884
  69.8063707  47.6058722  38.6327100  71.2182617  47.3869801  39.1323471
  49.2087221  54.7365427  34.9205613  49.9763870  54.9623871  35.4458427
  49.3923378  55.1061010  34.0568805   2.5767804  74.3584299  21.1762857
   2.8390694  73.4444857  21.2864637   1.9167615  74.3363285  20.4833794
  37.2201825  77.7687836  53.4899282  37.9939080  78.3315134  53.5202074
  37.1762562  77.4706554  52.5814009  71.1683170   2.7926396  17.5406384
  71.4525120   3.6911725  17.3729539  71.9252436   2.3747109  17.9512799
  72.9903030  38.8672209   3.6720106  73.9151192  38.7387085   3.8827983
  72.7841520  38.1617785   3.0587524  58.7740469  74.4954252  66.1580610
  59.7214556  74.4385052  66.0339260  58.4119844  73.8737154  65.5266953
  27.4148846  77.3183775  24.3522859  27.1595860  77.9939270  23.7240458
  27.4272442  77.7689648  25.1967096  81.6672897  60.6513643  19.3826771
  81.7902088  60.7087612  18.4351373  80.8656883  60.1392889  19.4896293
  47.9057789  74.3211412  44.7902679  48.8556671  74.4296789  44.7437477
  47.7263927  73.5489082  44.2538881  57.1860743  64.7284126  35.9232211
  57.3954916  65.5050516  36.4420748  56.4556980  64.3198013  36.3877845
  65.2669334  35.2288318  27.0336342  65.5612421  36.0643578  26.6709900
  65.9031916  34.5904422  26.7113471  48.3325911  65.3984737  45.9399223
  48.1626225  64.7664642  45.2414179  47.4631691  65.6585169  46.2444115
  57.8663461  31.8995332  33.2712078  58.6328666  31.6539907  33.7892723
  57.1607725  31.9837331  33.9125395  43.6460495  68.9040709  50.1679087
  42.9705191  68.5676479  49.5790911  43.6935663  69.8390722  49.9685431
  60.2494383  68.6759329  23.0582738  59.5741892  68.2270336  23.5669613
  59.7615528  69.2176342  22.4379802  33.8917701  16.0917615  22.6466155
  34.3298326  16.2681150  21.8140101  32.9789619  15.9308385  22.4076247
  36.9208121  67.9222679  39.5831847  36.5698719  68.7945032  39.7628617
  36.5182829  67.3609591  40.2458572   3.9087861  29.6992253  58.7669849
   4.4664710  29.7679566  57.9920673   3.2509129  30.3846406  58.6501789
  72.7068472  55.1110888  48.4224129  72.4324131  54.5671463  49.1606855
  71.9068003  55.5554581  48.1418848  82.5357914  79.7840977  13.0053329
  81.7447281  80.2955055  13.1753826  82.3822308  79.3826675  12.1500516
   2.6027911  28.2090138  30.6532335   3.4690135  28.2606553  30.2492285
   2.7309220  27.6573609  31.4249206  65.9765863  52.0486069  36.2173581
  66.5702057  52.3009109  36.9246006  65.1936102  52.5802326  36.3607240
   9.9863530  37.6391959  51.1154127  10.2422524  36.7884398  50.7590961
   9.2974282  37.4364090  51.7482567  44.7064019  76.6379786  32.9316592
  45.0267792  75.8050251  32.5855660  44.0542126  76.9274664  32.2936320
  81.6816616  32.7863216  41.1711836  82.0500183  32.4538350  40.3526497
  82.4090385  33.2440376  41.5926790  82.8482914  71.7065859  18.5409057
  83.4138966  71.4205503  17.8236127  82.2986507  72.3887062  18.1551099
  56.9338846  55.0319099  11.2976265  56.4499140  54.7348261  10.5270791
  57.8514242  55.0147438  11.0254788  72.9081025  79.7394039  66.6943319
  72.0588413  79.6996548  66.2545513  73.3222642  78.9005735  66.4916719
  53.5458565  72.2509193  34.5513892  53.1259012  71.6181421  33.9687538
  52.8197527  72.6687956  35.0144076  50.3791237  39.3460178  67.8940773
  49.5968533  39.1249585  67.3886871  50.7298040  40.1258421  67.4638128
  64.7577190  55.3509378  13.6958849  64.0243435  54.9692631  13.2134724
  64.9976778  56.1281967  13.1913841  64.3786287  73.1694698  40.6225252
  63.6370134  72.5786161  40.4916334  65.0203657  72.8973293  39.9665141
  68.6249733  77.5476313   2.6558828  68.7144852  78.2441187   2.0054063
  67.7085066  77.2784042   2.5939518  82.4144173  39.6008587  20.5592084
  82.6221752  38.6914134  20.3447819  82.7350521  39.7152638  21.4538240
  31.7680836  73.2842398  13.9910173  31.4127350  74.1449594  13.7693822
  31.2431216  72.9931402  14.7366083   3.5253232   4.3122624  24.9176955
   2.6440900   4.6816968  24.9741411   4.0591185   5.0201177  24.5568228
  80.6262493  54.6725416  25.1184201  81.0717678  54.0799284  24.5129871
  80.9144878  55.5461884  24.8540521  47.1530628  58.1774712  51.2585592
  47.7014780  58.9619446  51.2671995  47.7417231  57.4707794  51.5236902
   2.5566332   7.7514695  26.2408519   1.9432347   7.1959638  25.7598305
   2.1811764   8.6299752  26.1817026  69.7211838  30.6731534  59.0831423
  69.2092037  31.3148284  58.5908365  70.5740166  30.6629610  58.6486340
  11.8189676  17.3850180  67.6114313  10.9383781  17.3708989  67.2364725
  11.6781528  17.5206019  68.5484584  30.8753181  74.9754620  30.9769297
  31.7035270  75.2730560  30.6004429  30.8005404  74.0623665  30.6996250
  49.3100548  73.7412739  47.6570797  48.8437653  73.1636953  47.0527506
  49.5240736  73.1831646  48.4047079   8.8733905   2.3722219  23.2165146
   9.1609042   1.6521691  22.6551819   8.0497162   2.6654576  22.8268957
  85.1511288  47.1936035  12.5696325  85.4776955  46.3707542  12.2056198
  85.9404850  47.6839828  12.7991152  76.1847115  47.4753428  35.1596951
  75.5578804  47.0095921  35.7132220  76.8598509  46.8257809  34.9635077
  60.3690720  45.9329271  49.4460773  60.4266453  46.8752146  49.6042299
  60.1942348  45.5556059  50.3082228  57.7142477  52.3083496  13.1674457
  58.5659504  51.9625425  12.9005158  57.5057077  52.9681873  12.5061154
  16.2517779   5.2231740  22.8724098  16.6716998   5.0787496  22.0244503
  16.2917321   4.3715619  23.3076096  44.2406464  59.2935467  13.0352068
  44.0661526  59.4929123  13.9550090  44.5790911  58.3982229  13.0442262
  70.6164503  49.9504137  15.8360672  70.8324385  50.2878571  16.7053854
  71.1103821  50.5066681  15.2337015  79.2292309  67.9997349  48.6191654
  78.6712980  67.5820827  49.2752934  79.2188644  67.3958683  47.8765535
  75.7680225  43.0448151  42.9249287  75.6033182  43.1381845  43.8632202
  76.7063999  42.8663445  42.8630686  65.8984232  60.3212690  30.4835963
  65.7161713  61.0137033  31.1188531  65.2388763  60.4431105  29.8006725
  61.0089350  69.4287682  34.2406130  60.0931835  69.6101999  34.0291548
  61.0017920  68.5383081  34.5917058  83.2360554  31.9513583  17.9290330
  82.5664234  32.3585439  18.4786081  82.8388596  31.9091916  17.0591545
  76.4592545  10.4236459  26.0777783  77.1785061  10.0789784  26.6070461
  76.0097877  11.0395192  26.6564846  86.5811634  52.0264339   8.4136134
  85.9217930  51.3789034   8.6629421  87.4029732  51.6759157   8.7571180
  72.9441929  76.3863802  14.1729605  73.6666155  75.7707500  14.0491319
  72.7975273  76.7613411  13.3045578  79.1158628  72.1131086   0.2486441
  79.4145632  71.4218473  -0.3422621  78.8577175  71.6513157   1.0463543
  81.5046406  46.1323261  48.3439589  81.9640255  46.0633707  47.5070286
  81.5065098  47.0688629  48.5417509  35.1123674  34.2305972  66.8567778
  35.4299171  33.5736491  67.4763010  34.1588076  34.1837336  66.9257913
  75.4973984  48.8362741  32.7074409  74.6630478  48.5017824  32.3785043
  75.5635595  48.4838724  33.5949492  68.7157822  68.9255810  36.4434481
  68.2658482  68.8947296  35.5991507  69.6408176  69.0250492  36.2183905
  52.2773790  75.5806351  38.3628750  52.2450829  74.9283314  39.0626526
  52.8640556  76.2598944  38.6955094  57.0953798  51.0167313  60.7505465
  57.4159813  50.3949976  60.0971794  57.7331305  51.7303658  60.7352877
  66.0942507  65.6722403  11.1795139  65.8887100  66.2084246  11.9453406
  67.0297098  65.4865599  11.2612212  70.4902260   1.7968892  45.5621719
  71.0190575   1.3737725  44.8857498  71.0512058   2.4929380  45.9042978
  81.9803047  73.6463833  50.0869226  81.2325001  73.8393736  50.6523991
  82.7250671  74.0568924  50.5262899  17.6571124  60.1711510   1.5638556
  18.5201066  60.0882553   1.1581434  17.7096360  59.6295272   2.3513331
   2.1343272   0.6640481  45.2380610   2.1196025   1.5780686  45.5219269
   2.8596680   0.6183671  44.6151400  15.9448529  77.8386450  15.9894848
  15.7964612  76.8948221  16.0479105  16.4010621  77.9582644  15.1565433
  48.2687338  59.6060826  69.3746258  48.7110193  60.4481293  69.4821389
  48.9274891  59.0389801  68.9737947  10.2403531  27.2141287  15.1080765
  10.8420358  26.4866374  15.2661194  10.0141130  27.1407340  14.1809048
  11.4185183  16.9381284  13.9347947  10.8120911  16.9872331  13.1958282
  10.9083645  17.2455262  14.6841168  64.7060291  23.4103631  38.0613399
  65.2496616  24.1946267  37.9863501  64.4999592  23.1743955  37.1568561
  44.0947493  42.3715092  52.8149937  43.8650854  41.8743397  52.0299397
  44.5972498  43.1175114  52.4875806  24.9937153  76.5656376  52.5534296
  24.5469666  77.3630476  52.8376532  25.8037472  76.8761539  52.1488667
  47.1142912  73.2709837  36.1788464  46.9364214  72.5996304  35.5201483
  47.3815203  74.0382385  35.6727433  78.1808376  54.4805622   6.9345832
  78.9575577  55.0009060   7.1399713  77.6774216  54.4700956   7.7486438
  59.2695189  61.5171766  20.5935431  59.8855639  62.1220922  20.1802707
  58.7858438  61.1316633  19.8630142  85.1826994   3.1979131  53.5166073
  85.8905689   3.5367822  54.0646219  85.0217859   3.8917207  52.8770971
  57.4590254  55.3430653  21.3543749  57.3145628  55.0848103  22.2646856
  57.7038956  54.5308685  20.9109664  23.7961428   3.2630395  10.4497874
  23.4415095   4.0299844  10.0000525  24.3174307   2.8146600   9.7838652
  52.5620079  80.9994698  25.3150082  53.1930923  81.5983391  24.9158645
  53.0115938  80.6581020  26.0880399  13.9636462   3.0649804  32.1512461
  14.2469638   3.4185552  32.9944229  14.7556298   3.0639409  31.6136670
  44.8625811  48.0577923  57.5544439  45.5094059  48.7328602  57.3491965
  45.3836496  47.2967411  57.8104256  74.4317675  54.0545702  10.1507628
  73.7610817  54.5495272  10.6213260  74.9284124  53.6107683  10.8382297
  81.9492149  78.4103394  33.7837744  82.7745247  77.9392385  33.6690545
  81.4589024  77.8841877  34.4154286  15.8693886  75.6657457  59.6840525
  16.3933182  76.3963842  59.3555737  16.2923241  74.8864985  59.3233109
   1.5241377  11.2477540  32.6361561   1.7853634  11.4377355  31.7351007
   1.3429682  12.1061276  33.0190516  63.6219597  43.4501934  36.7222738
  64.0295553  42.6530504  37.0608878  62.6838875  43.2598209  36.7262387
  67.4872971  46.3280869  18.8383543  67.9460573  46.9900513  19.3556237
  66.5592241  46.5035629  18.9936745  77.2272921  63.3944798  10.0802088
  76.9852734  63.5521889  10.9927797  78.0991650  63.7799215   9.9935931
  76.6283560  70.6622124  53.7955904  75.8331156  71.1233711  54.0623522
  76.3556862  69.7495556  53.7010479   7.2073079  70.5851793   4.1240272
   7.5462533  70.5932283   3.2288837   6.3105298  70.9100580   4.0435010
  16.9267281  58.6015583  54.0022658  16.1514862  58.2344319  53.5774718
  17.4212749  57.8378083  54.2994831  18.9029027  56.2699842  26.3962269
  18.4560586  56.9531345  26.8960929  18.2001019  55.8121014  25.9350967
  42.0409393  75.9022617  16.3195336  41.9884300  75.2370739  17.0058298
  41.4302206  75.6010723  15.6468260  73.3567238  81.1388683  34.2606091
  72.6960135  81.3600731  34.9169350  73.6878681  80.2831078  34.5330906
  62.5063284  35.4459645  64.6334360  62.7273138  35.6851603  65.5335377
  62.0601519  34.6027972  64.7123377  18.7532942   7.2933148  19.9572790
  18.0851977   7.9184197  20.2385759  18.5287135   6.4817285  20.4123855
  49.7666502  70.5331039  38.0641842  48.8187265  70.5366087  37.9313254
  50.0725555  71.3284445  37.6281929  67.8451729  59.7549200  20.0731373
  67.2534466  59.4591141  20.7649374  68.6338711  60.0364590  20.5367327
  15.6982176  38.4092187  24.3877840  14.8561375  38.8264798  24.2060661
  15.8297770  38.5345506  25.3275800  22.1762793  15.0772618  18.2067430
  21.9511979  15.6996106  17.5151849  21.3511031  14.9206208  18.6658585
  50.7305193  59.2667580  42.1790552  51.6142464  59.0101910  42.4425411
  50.8414841  59.6481943  41.3081789  15.2031129  11.3150357  42.1960258
  15.9563725  10.7391500  42.0649338  15.4097932  12.0992230  41.6875362
  64.0779018  48.9991426  18.9272189  64.6042442  49.0829659  19.7223103
  63.6646748  48.1390715  19.0031016  26.7348044  41.1822652  47.6477098
  26.8224566  41.8935250  47.0131540  27.6258891  40.8517694  47.7616405
  86.2983648   6.1168717  16.2096858  87.2291414   5.9787225  16.0341609
  85.8500807   5.6619214  15.4967380  67.2068596  65.2853823  43.2349682
  67.3801374  64.3973637  42.9225206  66.7705059  65.7168770  42.5003672
   5.8201504  73.3652687   7.5278568   5.1830197  72.6903963   7.7620327
   6.6708470  72.9418993   7.6432365  83.3873367  48.9954662   6.9422752
  82.5297832  49.3568468   7.1664160  83.6124420  49.4113874   6.1100656
  43.5138805  32.7868916  64.3048613  43.1931122  32.6497723  65.1962308
  43.9023741  33.6615397  64.3220083  67.3336840  75.9916735  34.2957520
  68.0622864  76.0612822  34.9126220  66.5737677  76.3049030  34.7863126
  19.5208399  41.8467378  14.7486019  20.3350871  42.3375367  14.6374726
  19.7698777  41.0849618  15.2719569  42.7235263  14.7772073  18.9975441
  42.4133437  15.5890512  19.3986881  43.6665099  14.7738885  19.1619074
  56.7999649   6.1016679  56.6529392  57.7162838   6.3759828  56.6162275
  56.5340137   6.2751508  57.5559352  71.3032000   8.8997697  21.2733436
  71.2131397   8.4359788  22.1058226  71.8085377   9.6835088  21.4892507
  76.5193359  48.0439138  15.7702386  76.4932959  48.5962724  16.5515542
  76.3859503  47.1554421  16.1004782  23.9637225   9.8149919  31.0335994
  23.7342112  10.0717305  31.9267106  24.9025576   9.6321153  31.0707307
  17.9341595  22.8272962   1.8381611  17.7204840  23.7580537   1.9034095
  18.8000195  22.7516507   2.2391471  84.2590714  57.3637056  29.5976996
  84.3131542  58.1665134  30.1161647  85.0351429  57.3873949  29.0378809
   5.5743123  28.0528855  31.8035960   6.2029172  28.4081507  31.1752081
   5.9194565  28.3094573  32.6587486   5.5551370  18.9766766  65.8968373
   4.8735888  18.8650872  66.5596114   6.0225351  19.7678687  66.1647786
  13.7871457  66.7475700  37.7869534  13.5222531  67.3755312  37.1148419
  13.7875748  65.9021759  37.3380280  48.9109667  62.0140053  66.6609414
  49.1019352  61.9531704  67.5969224  48.6554392  62.9267670  66.5274642
  24.7894042   2.3789167  52.6543236  25.1428454   2.4660253  51.7690420
  25.0332110   3.1950997  53.0909395  19.0582364  11.3393544  20.2065873
  18.5433285  11.5923451  19.4403648  18.6842291  10.5019425  20.4806328
  74.0843773  66.4397287   6.9078928  73.4298515  66.4876127   7.6046968
  73.5803461  66.5302896   6.0992014  51.0127695  34.1537930  59.7204946
  51.0387381  33.9074112  60.6450783  51.8979700  33.9788462  59.4010506
  49.3077278  37.9025888  14.1606009  49.5964670  38.5413313  13.5087824
  48.5948896  38.3405161  14.6256959  11.9175046  24.7334813  50.0727224
  11.2404578  24.4266175  49.4696712  12.5032179  23.9836072  50.1768875
  81.5718309   4.1097020  64.0700912  80.7567017   4.5998334  64.1776133
  81.3586895   3.2234143  64.3621492  38.8044317  31.4085366  70.0012700
  39.5697077  31.1591460  69.4832091  38.5391243  32.2559811  69.6439430
  75.9427683   9.8915338  40.7982540  76.0010330   9.5571183  39.9032688
  76.7518942  10.3878449  40.9216404  71.3909285  34.2810010  47.1549225
  72.0678131  34.9194764  47.3794317  70.5839006  34.7936582  47.1089506
  34.8042052  13.9699983  24.1544938  34.5276683  14.8243093  23.8229704
  34.0345328  13.4110498  24.0476632  65.2669477  57.8088856  20.9695196
  64.9458361  58.6987400  20.8236599  64.4874191  57.2581100  20.8973289
   9.9702740  43.0298662  52.2066927   9.1053487  43.2854795  51.8860674
   9.8401833  42.1566057  52.5764561  34.0780203  19.6744393  34.8602557
  33.8738864  19.8490571  35.7789898  34.9919932  19.9417161  34.7629952
  76.8856716  60.2698946  10.2917409  76.5536642  61.1388302  10.5174780
  77.5760317  60.4365587   9.6499783  81.7249966  51.2984324  22.8102136
  80.8749580  51.0375500  23.1646109  82.1474552  50.4738855  22.5696135
  17.7400017  66.0645676  32.7777672  17.5752164  66.3150358  31.8687320
  16.9888497  65.5213976  33.0164695  68.2283115  73.8654184  37.9274178
  67.9675961  74.7860956  37.9522061  68.4480906  73.7033463  37.0099974
  15.5812733  15.8782243  25.3207278  14.9221556  15.2495908  25.0264096
  15.0745528  16.6265153  25.6362009  76.2054586  80.6409454  32.6877427
  75.3061152  80.4959488  32.3938131  76.1734056  80.5021095  33.6342788
   8.2987540   3.7726735  55.9351826   9.1367715   4.2351007  55.9460688
   8.4153550   3.0809259  55.2839327  72.0909643  59.6748734  36.8006968
  71.9582176  60.0749159  35.9412956  73.0361366  59.5340347  36.8559074
  46.0631847  81.6581345   2.5766793  46.7390013  82.3124218   2.7539030
  46.5410995  80.8311749   2.5136429  68.7473488  54.3540239  51.9287682
  68.9581490  53.6903191  52.5854969  67.7927256  54.3307352  51.8625641
  72.6459591  19.5173978  30.7224369  72.5221006  19.5619058  31.6705441
  72.2139351  18.7037896  30.4623842  84.3384258   6.2672757  17.9035032
  85.1111786   6.0921239  17.3664665  83.9428131   7.0439195  17.5078452
  54.6239567  72.0048904  27.8490162  55.1403761  72.7185440  28.2235026
  55.2145958  71.2516975  27.8576636  17.4072259   1.2883710  23.6505103
  17.8265040   1.8195485  22.9735374  16.5134995   1.6272973  23.7015772
  59.7806931  67.8580761  50.1317644  60.4305553  68.4338522  49.7287750
  59.6784687  68.1975794  51.0208750  54.4062376  64.5278168  12.7360475
  53.9027786  65.3210640  12.5529540  53.8846493  64.0579510  13.3867419
  83.6972046  51.4708853  38.4690285  83.6594200  51.7080450  37.5424433
  83.9830780  50.5573702  38.4709811  43.6785555  56.4793873   0.7312658
  42.9202890  57.0549011   0.6310423  43.4522820  55.9111214   1.4675450
  66.1269140  55.4211235  18.4829056  65.9907722  55.7882643  17.6094627
  65.2451324  55.2297926  18.8024056  61.1514091  62.4861050  50.4730988
  61.9388056  61.9792652  50.2747250  60.4821873  62.1267319  49.8906660
  68.9961958  59.0174389  35.5424094  69.1479826  59.8265028  35.0539303
  69.4651842  58.3465338  35.0462556  53.4456205  59.5513391  43.0196381
  53.3048725  60.4458332  42.7093172  54.3828630  59.5082903  43.2092428
  21.1750603  66.8438244  36.0017800  20.3540040  66.7345238  36.4815140
  20.9155656  66.8466949  35.0804281  58.2972582  20.8357407  45.9436403
  58.1227263  19.9967410  46.3700734  59.1224154  20.7005383  45.4777394
  28.3698504   1.5141152  59.3701267  27.4643557   1.4239644  59.6670866
  28.2986586   1.6702413  58.4284353  74.6746683  75.2543020  16.9649780
  75.1542616  74.4938803  17.2935784  74.7719622  75.2061892  16.0139513
  53.4355776  22.5377225  36.5991712  52.7988093  23.1422853  36.2180352
  53.1609194  21.6744088  36.2901592  43.5953768  60.6493832  67.4967678
  44.2466791  60.6034733  68.1967164  43.7420853  59.8566605  66.9807263
  58.7571907  70.9881926  24.6664119  59.3370581  70.4199266  25.1734233
  59.0493441  71.8755960  24.8747182  77.6424026  76.0948944  50.5353689
  77.1348763  76.0644341  49.7243690  77.0631552  75.7131481  51.1948919
  28.5129492  29.2071866  32.6171303  28.0351298  30.0365209  32.6055026
  27.8991454  28.5719346  32.2484422   2.5145150  60.2420282  41.7449760
   3.2510186  60.0960112  41.1512852   2.2230530  59.3626738  41.9858408
  17.4991028   7.1216344  11.7489684  18.3835213   7.0306253  11.3943589
  17.0344489   7.6509332  11.1007655  84.1131306  49.7994184  17.2924685
  85.0562763  49.8111868  17.1294808  83.7201691  49.7456980  16.4213026
  62.0809460  81.2058830   2.3630820  61.8280458  81.2787342   3.2833910
  62.8352118  81.7886162   2.2751144  82.9131794  62.6402140  45.9922361
  82.2065735  62.0060110  45.8708954  82.4648285  63.4712505  46.1490440
  74.8036656  37.1545003  19.0242542  74.9368081  37.5447486  18.1604160
  74.7365746  37.9028008  19.6173634  74.4709166  66.3612629  68.1780921
  75.2313478  66.5306069  67.6219420  74.8209913  65.8647610  68.9177975
  52.2402906  44.3762064   5.0611776  52.8084278  45.1461601   5.0362676
  52.5676346  43.8141870   4.3588889  71.7293501  70.5893135  12.2058094
  71.9380140  71.1239529  11.4397466  72.3495579  70.8778429  12.8753817
  81.4659595  42.7188730  46.4902115  81.9444656  41.9082975  46.3163376
  81.9585419  43.3929300  46.0219765  22.3443740  17.4051236  16.2509727
  22.4852698  17.8883885  15.4368269  21.3947671  17.2972058  16.3041759
  72.8754950  62.9089975  28.3063960  73.6806917  63.1151581  28.7811446
  73.1676674  62.4053383  27.5466657  62.0888901  65.1867247  25.9141517
  62.0634413  64.2396832  25.7774282  61.9026470  65.5582952  25.0518990
  76.7453814  62.8771019  59.7549105  75.8454609  62.6824570  60.0166178
  76.8675327  63.7983847  59.9841309  72.7950382  43.7191391  38.5818553
  73.3626938  43.9556074  37.8483152  73.3368492  43.8583946  39.3585706
  74.4981949   6.3676309   5.6948704  73.9530842   5.8818578   6.3138247
  75.3095905   6.5384149   6.1730993  54.1524792  72.6539707  13.4594059
  53.4779406  73.2176304  13.8382387  54.2133331  71.9140148  14.0635514
  63.0620813  60.0888109  24.1571259  62.4514675  59.5510435  24.6613026
  62.5328350  60.4488039  23.4454107  81.7526913  69.5191622  40.0580359
  82.5256443  69.5995331  40.6168985  81.0710430  70.0067711  40.5204535
   2.6377289   3.7980699  65.3850365   3.3789055   3.8265657  64.7799921
   2.7117770   4.6061563  65.8927155  53.9091063  65.7710981  36.8765020
  53.2018757  65.9630203  36.2606907  54.3126202  66.6214895  37.0504045
   1.9057274  80.8625698  68.1273890   1.0466672  80.8206654  68.5474873
   2.3868085  81.5192604  68.6309242   2.2212315  58.0651331  33.8714671
   1.4189912  57.6640749  33.5371065   2.5136948  57.4736452  34.5648909
  80.4167747  53.8872385  35.4979229  80.3983212  53.7978649  34.5450830
  79.5257950  53.6745977  35.7757330  15.6518753  57.8509404  68.6644085
  15.8256443  58.2714821  67.8222822  14.6971615  57.8340699  68.7312283
  27.6989754  27.0518233  65.7219331  27.2365006  27.3503615  66.5050213
  28.6238916  27.1999909  65.9189184  19.4901173  32.1303128  13.5206640
  19.4096987  31.8300675  12.6153374  19.1345780  31.4118432  14.0437591
   5.4301549  78.4024620  13.9689434   4.7050477  77.7895021  13.8475680
   5.6160165  78.3707905  14.9073911  63.7263067  47.0290352  70.2331410
  63.2351358  46.2444855  70.4770024  64.6236284  46.8460442  70.5116411
   1.7394066  51.4593935  13.6937153   1.9974232  51.4369822  14.6152127
   1.9739056  52.3399496  13.4006834  14.1522353  23.8057088  43.2397938
  14.2223160  23.2182740  43.9922810  13.4386628  23.4406232  42.7165747
  15.3655379  19.5135736  38.0487752  14.8660557  20.2281045  38.4439802
  14.8504346  19.2554139  37.2844076  42.2202412  77.0179202  40.2336822
  42.7345196  77.5059965  40.8767401  42.8486935  76.4208796  39.8277055
  78.6409132  13.6622571  30.7971954  77.9455225  14.1205072  31.2690830
  78.4575979  12.7340840  30.9425616  59.5458126  78.6757755  38.6781001
  59.7584009  79.0120125  39.5487237  58.8330173  79.2366457  38.3722091
  63.2091284  71.7501926   3.3361351  63.0862904  72.4963665   2.7493078
  64.1370773  71.5304947   3.2532087   2.2345448  46.7429256  22.7959228
   2.1858025  46.9003344  23.7388325   2.9458905  47.3083973  22.4951506
  70.9711552  75.6661367  56.0563946  71.0826874  76.3571501  55.4034853
  71.6720772  75.0423574  55.8670807  75.6624384  71.6982091  41.8184662
  75.8708162  71.1463810  42.5723219  74.7631569  71.9867940  41.9741726
  33.7760782   9.6812141   6.3375849  33.8782430  10.3745008   6.9896185
  34.1407347   8.9020503   6.7573005  22.7816296  11.8444526  13.8006234
  22.6465869  12.5230956  14.4620144  22.4283576  11.0486972  14.1983712
  66.6429463  32.0168766  60.1523898  65.8636942  32.5520023  60.0019370
  66.6283789  31.3691380  59.4477950  75.6088633  38.9989139   1.0881583
  76.1084218  38.6072398   0.3717331  74.7813065  39.2635203   0.6864549
  82.2608693  73.9107771  41.6490459  83.1364734  73.6290623  41.3841200
  82.2973282  73.9387763  42.6051426  45.8491161  53.3927502  62.9063843
  46.4493432  53.8200965  62.2953741  45.1235595  53.0926063  62.3589240
  12.1291569  44.6988001  68.9439882  11.7809608  44.6792441  69.8353963
  13.0762508  44.7771683  69.0584664   0.0768486  13.1444719  55.2594064
  -0.2066788  12.6380541  54.4982313   1.0089699  13.3016589  55.1088236
  85.1631029  55.2410031  26.4275312  84.6949298  55.2353955  27.2624063
  84.5698674  55.6872679  25.8232546  33.9236426  17.8059673  12.6632309
  34.4020700  17.9072118  13.4860849  34.1017628  16.9054925  12.3918462
  34.2386317  14.1312730  37.1268749  33.5046768  14.1465616  36.5126204
  34.4063616  15.0531054  37.3226380   8.2191604   2.8613442  12.1049953
   7.7486616   2.1656209  11.6458309   8.6274374   2.4223019  12.8511751
  14.9316319  71.6643704  26.6126060  14.8608978  71.9354773  25.6973314
  15.0265224  70.7126738  26.5738606  59.3568173  45.6151389  62.5458889
  59.3784943  45.4727276  61.5995900  58.5688582  46.1387857  62.6913051
  32.6107335  12.1711874  13.3822572  32.7766824  11.7636299  12.5322044
  33.3641219  12.7443147  13.5242498  10.2023139  28.3925094  49.8821555
  11.1093309  28.1751361  50.0973283   9.6803942  27.8830542  50.5020653
  56.7555198  81.8756203  -0.2066452  57.0490258  82.0062298   0.6950349
  56.6895083  80.9254505  -0.3017839  59.7319297  79.1897962  13.6923337
  59.3203054  79.8835723  13.1770933  60.3406740  79.6497736  14.2703319
  21.3401532   7.6237214  34.4474411  21.4867282   7.9426175  33.5569072
  22.0760822   7.0350850  34.6152234   6.8759950  74.4460149  23.5807848
   6.6070302  74.2486037  22.6836133   6.6741426  75.3750063  23.6924219
  58.0961767  55.5929758  70.4075903  58.1232014  54.8247340  70.9779464
  58.9385071  55.5835607  69.9530329  14.0186842  46.3501073  42.3857594
  13.5176332  45.6580902  41.9541454  14.5643480  46.7193867  41.6914129
  25.0232561  74.9119104  49.3444204  24.4300421  75.6414236  49.1651440
  25.8489283  75.1680584  48.9334679  70.6207481  29.6413984  69.1447996
  69.9908939  29.0950968  68.6746152  71.4457765  29.1594901  69.0871270
  68.2766428  36.9392892  70.3836624  67.9873171  36.3399582  69.6956763
  68.2425657  36.4177393  71.1855703  51.7106858   7.4976852  52.7328919
  52.5043693   6.9727661  52.6291679  51.7243471   8.1017878  51.9905268
  39.6569164  62.2257043  44.6401262  39.9087914  63.0420316  44.2083836
  40.1914270  62.1996761  45.4337549  79.1727431  75.0083310  19.5933461
  79.1854174  74.2727763  20.2057433  78.3420212  75.4507870  19.7676086
  53.1836644  33.1461974  58.2362865  53.3143940  32.3284873  57.7561913
  53.4689012  32.9484244  59.1283391  34.5953989  20.4889345  43.1894159
  33.8282609  20.7306886  42.6704884  34.3680620  20.7405877  44.0845251
   7.4045833  56.4518882  39.3555021   6.5119036  56.7661406  39.2119718
   7.4686249  55.6602479  38.8212395  72.3577506  55.0828577  11.6944873
  72.0536334  55.8836580  12.1216416  71.5668733  54.5550514  11.5841937
  81.3039596  75.4740007  47.2788954  80.8412297  76.2770821  47.5180101
  80.8221633  74.7779090  47.7256203  35.1176126  27.4185706   4.1701955
  34.4620712  27.8050805   3.5895857  35.4113682  26.6323424   3.7099978
  32.1023329  52.6626159  31.5310764  31.9613989  52.6730467  32.4777865
  33.0452641  52.5320507  31.4307237  48.9140511  43.6225033   7.6147693
  48.6877298  44.4544697   8.0305082  48.1382132  43.0751896   7.7362275
  43.8263824  40.8782478  62.5092135  42.9284897  41.1482508  62.3165540
  44.3657484  41.3968185  61.9122206  13.6816366  74.7666896  44.3613529
  12.9799898  75.1999916  44.8473310  13.2433088  74.0608276  43.8861036
  18.5411270  74.9458308  33.2076216  18.9769371  75.7326079  33.5351634
  18.6000021  75.0184138  32.2549963  64.3792004  52.0174218   3.1264335
  64.5579548  52.8650881   2.7193215  64.2461468  52.2197796   4.0524897
  19.3085051  25.0207734  15.6074727  19.5120668  25.0789523  14.6739793
  20.1420879  25.1924348  16.0455406   3.9157422  72.0048107   8.7222219
   3.5826738  71.4799679   7.9943216   3.3878048  71.7346288   9.4735646
  81.1957772  80.8202725  32.8748441  81.3195999  79.9017633  33.1140947
  82.0546801  81.1041488  32.5619078  34.4836720  79.4303531  29.7285628
  34.9046715  79.9406067  29.0367293  34.5365723  78.5244448  29.4239902
  79.5342365  63.0255415  61.8866490  80.4695049  63.1143501  62.0699941
  79.4884410  62.8758075  60.9423427  21.2022567  18.1857574  51.9367170
  20.9206629  18.2973969  51.0287094  21.8511128  17.4829197  51.9015646
  26.8936014  10.2570701  12.3569977  27.0940375  10.0317681  11.4485395
  25.9856939  10.5594134  12.3340631  43.2071018  17.0801449  21.6439366
  42.6144695  16.3816607  21.9216800  44.0276957  16.8934906  22.1000218
  51.9605589  19.8026514  17.1256185  52.0706892  20.2291799  17.9754281
  52.7431583  19.2604721  17.0265472  18.5051735  65.5418254  29.7568846
  18.6117561  64.6953786  30.1909375  19.3716391  65.9458781  29.8038816
  70.9230390  58.3245125  50.9951673  70.3082672  57.6815607  51.3485823
  71.2089601  58.8270249  51.7580305  64.3240881  14.9623728   1.7582884
  64.5618582  14.5369470   2.5821275  63.4363270  14.6538138   1.5768856
  43.7320328  14.5320451  36.9571757  44.0679502  14.1083384  37.7470279
  43.2365417  13.8461304  36.5096951  17.7362466  28.4097791  21.6655588
  18.3831012  27.7576160  21.9348073  17.7396119  29.0561342  22.3715687
  75.1412311  72.4180176  57.9973243  74.5774331  72.8829601  58.6155413
  75.7806840  73.0728724  57.7171467  31.1645372  63.0833734  42.6398659
  30.2819450  63.4459353  42.5636292  31.6855152  63.5879053  42.0151520
   1.8469961  59.5780612  15.3904080   1.6277011  60.5091406  15.4254758
   2.2037538  59.4489528  14.5116091  54.0775490  15.5835903  11.8002570
  54.8644924  15.1020002  12.0552623  53.9303160  15.3357410  10.8875012
  79.8148830  80.2377426  30.2773619  79.1107113  79.6617087  30.5749536
  80.4941280  80.1509281  30.9461808  81.0043485  76.8598912   2.1147068
  80.2576692  76.9510559   2.7066442  80.7237847  76.2062753   1.4741583
  70.9644189  15.7803466  67.3514525  70.9056392  16.7257192  67.2134529
  71.8153825  15.5374887  66.9866101   3.6230858  55.9776307  10.3265452
   2.8164228  55.5365611  10.5929697   4.2964466  55.2996159  10.3823316
  29.7889256  26.7020798  29.4420338  29.5838809  27.6048279  29.1986489
  29.2425919  26.1684537  28.8649774   0.9890016   5.5046011  25.3331219
   0.3548940   5.1390912  25.9500013   0.5846937   5.3833224  24.4740187
  82.8718693  52.9020167   4.4482076  82.1911962  53.1913734   3.8405988
  82.8739865  53.5648251   5.1387954  58.7381268  18.5760069  33.0645609
  58.8500500  19.1337609  32.2947454  59.0925980  19.0926313  33.7882185
  50.3280726  50.2423390  60.3327249  49.6822777  50.6313153  59.7429131
  50.0827327  50.5621054  61.2009357  18.1178629  10.8580005  31.4284158
  18.2015157  11.4157343  30.6550026  17.2306454  10.5030429  31.3729095
  47.7454329  59.6441984   9.2713714  47.4414492  59.9977160  10.1073456
  46.9533300  59.3102598   8.8503146  51.6662286  77.5990608  50.1121579
  52.1457218  78.3317927  50.4987155  51.8669723  76.8551806  50.6801139
  27.6329756  31.9762397  31.6010690  27.4865890  32.8488278  31.9662976
  28.5228515  32.0097208  31.2500286  39.5822096  31.3339400  12.4755657
  40.2147245  32.0480371  12.5544453  40.1194191  30.5448675  12.4048436
  66.1989117  15.7620561  10.8155549  65.5325508  16.3707244  11.1344862
  66.2452745  15.9293854   9.8742354  63.9990807  10.2643383  30.3514051
  64.0624380   9.6031904  29.6621299  63.4318256  10.9413552  29.9824858
  22.7226686  27.3259687   2.8302518  23.2904053  26.9625092   2.1506894
  23.0170608  28.2313681   2.9293180   9.1169673  15.2895010  39.3727565
   8.8661009  15.2847266  38.4490275  10.0566602  15.4715621  39.3648052
  14.8644745   5.7645029  28.4718752  14.0685105   5.8162433  29.0010214
  15.1566148   4.8579195  28.5667062  86.0048373  66.3572861   0.6179149
  86.3471706  66.8172146  -0.1485734  86.1530716  65.4310192   0.4274237
  18.6894155   8.8917023  35.5439568  18.3522177   8.3965057  34.7974253
  19.6103656   8.6376792  35.6035781  67.5126513  80.7094085  10.1755261
  68.2614286  80.3915311   9.6710211  67.3368032  81.5805855   9.8200542
  40.3487387  49.9192002  65.1775138  41.1030569  50.4080769  65.5065034
  39.6171251  50.2142724  65.7196449  38.8391495  25.6194663  17.3910165
  38.4137058  25.0916481  16.7152667  39.3056893  24.9834800  17.9333186
  42.7793899  32.4708959  52.7334843  42.7415934  32.4395474  53.6894236
  41.9873371  32.9436877  52.4778436   1.4454094  79.4586780  42.4539719
   1.4814869  79.4821265  43.4102021   0.5245939  79.2914369  42.2530614
  85.9737499  76.0016371  49.5109415  86.3104303  76.7147840  48.9684486
  86.7068155  75.3906388  49.5852947  70.9567785   1.0435712   5.8398789
  71.0363722   0.6017793   4.9944696  70.6387901   1.9200021   5.6231207
  64.4874282  71.8978120   7.8105301  63.7970973  72.5588299   7.7582783
  65.3002210  72.3910428   7.6995224   7.3424834  48.7426186   1.7045544
   6.6840988  48.7688065   2.3988712   8.1294060  49.1104221   2.1066849
  56.5412235  13.4641480  11.3726759  56.2158442  12.5646007  11.3384235
  56.2453413  13.8573003  10.5516315  50.2167359  52.9977145  56.4609681
  50.9123507  52.3765912  56.6767441  49.9076238  53.3153667  57.3093651
  20.8085585  22.0113349  28.9965701  20.3765726  22.8509831  29.1534495
  21.3772941  21.8888783  29.7566867  27.9618502   3.9551350  19.9345887
  28.2762671   4.2290139  19.0729833  28.5606790   4.3744636  20.5524898
  23.7873292   8.3867800  12.3409796  24.5130897   7.8019857  12.5589681
  23.0783725   8.1164980  12.9245555  69.3433824  14.6336796  54.1550778
  69.3447414  14.8791816  53.2298969  68.5059181  14.9568536  54.4874059
  84.8568740  23.7640169  50.4389964  85.2932706  24.4573023  49.9438749
  85.0394836  22.9651310  49.9443589  38.5697436  15.5723095  15.0394738
  37.9940915  15.1926339  14.3756199  39.1693354  16.1312616  14.5452130
  21.7501879  39.8125982  33.5155368  22.5844908  39.6513247  33.0749011
  21.5855646  39.0137529  34.0165138  62.9861355  29.2268300   2.3458020
  63.5858011  29.4522214   1.6345814  62.1378946  29.1134119   1.9170167
  30.5314851  16.5202928  40.6674051  30.5382657  17.4762118  40.6183720
  30.6356788  16.2331879  39.7602439   9.7405970  56.3555193  22.6093817
   9.4798273  55.5429697  22.1757913   8.9620787  56.6284895  23.0947948
  21.7504843  47.5882078  51.2922001  22.3128279  47.4508596  50.5298710
  21.1089428  48.2369805  51.0028028  46.4820433  20.5881405  14.6115839
  46.4949083  21.3155413  15.2336431  46.9779539  20.9085155  13.8581491
  47.3715925  59.0693474  14.5526874  47.7486658  58.8965225  15.4153454
  47.5308943  58.2664776  14.0564477  78.5565915  51.1571648  69.1254498
  78.8270917  50.2456810  69.0147383  78.8338962  51.3831463  70.0132934
  12.8693521   3.1632149  36.5838385  13.6068928   3.0525053  35.9838319
  12.2327256   2.5051260  36.3048100  14.5908153  17.0627749   5.2242327
  14.4412529  16.1896598   4.8615551  15.5380607  17.1092534   5.3538436
  16.8255528  79.5331773   2.0561026  16.4499243  80.3412210   1.7065307
  17.4726494  79.2675872   1.4026845  78.8820917  78.9724914  25.5316162
  78.5271818  79.8609806  25.5023217  79.4029434  78.9489798  26.3343549
  56.8325034  49.9316665  70.4378984  57.6629773  50.4028209  70.3703821
  56.5140143  50.1325580  71.3179210  74.1049114  71.8273570  62.4556570
  74.5790210  71.0019925  62.5567673  73.6095920  71.9202974  63.2694475
  39.7035885  17.3029697   2.1636942  39.9296045  18.2323194   2.1255113
  39.8717809  16.9790208   1.2788209  21.8129118  77.7451901   4.0902638
  21.4525278  78.2608608   4.8116803  21.1643847  77.0573557   3.9401683
  21.6224909   3.7321708  13.7262678  20.8469987   3.1793106  13.8221240
  21.9946551   3.4783849  12.8816855  58.4474802  31.8095851  38.0619550
  58.2719231  31.1586046  38.7413931  57.7386236  32.4465394  38.1516433
  57.5935760  46.1601486  47.5842510  57.8990331  45.7015785  48.3669649
  56.8825641  46.7197027  47.8966461  59.8161316  29.5730639  33.7165594
  59.8375559  30.2336311  34.4089603  59.5060778  28.7792349  34.1523743
  11.8011959  79.8906099  31.7055154  11.5197094  79.4743521  30.8908224
  11.1630543  79.5987488  32.3565316   5.3816229  73.3639145  21.3151312
   4.9526677  72.8993225  22.0337296   5.3720701  72.7414989  20.5879831
  59.3112316  51.4626958  70.5842821  59.6862140  51.3932433  71.4622323
  59.6209517  52.3074725  70.2576954  27.2701144  30.5974126  38.6439347
  27.7159047  29.7503853  38.6506724  26.4716530  30.4518843  39.1513944
  20.5441101  79.5334161  52.8421831  20.4316433  80.1495239  53.5660553
  20.6488951  78.6818464  53.2665396  43.5864496  21.1701107  22.2384691
  43.7871170  21.5962696  23.0717468  42.8898191  20.5483556  22.4490786
  48.7461758   0.3367119  20.9482551  49.4273806   0.0221577  20.3539062
  48.1915045   0.8946172  20.4029942  13.3343609  79.5147374  18.0675483
  12.6816996  78.8198821  18.1538153  13.9690931  79.1704778  17.4391913
  47.7201939   7.3187542  13.2308066  47.5183773   7.2844851  14.1658616
  48.0219364   8.2151443  13.0836010   7.4965131   5.1829284  24.8374987
   8.1729245   4.8002982  24.2786670   7.7371347   6.1068249  24.9064088
  15.0944622  73.7885285  10.5963504  15.0733574  72.8431363  10.7447398
  15.6444891  73.8969750   9.8205018  84.7725710  69.0315056  17.6319051
  83.9552777  68.8847971  17.1557319  85.3301487  69.5012045  17.0116460
  74.5645534  33.7163448  31.1546111  75.1009583  34.3660665  30.7003403
  73.6911272  33.8206673  30.7771516  29.4291639  20.3138924  37.5095820
  28.4731245  20.3606915  37.5041842  29.7102523  21.1040998  37.0482874
  78.5613162  74.7944266  38.2890391  79.2054016  74.1335333  38.5432172
  77.7553518  74.5253689  38.7297916  49.7532606  30.6467128  24.5630670
  50.3322983  30.6624722  23.8010335  50.2841902  31.0042763  25.2747512
  64.4512749  30.2274346  40.0527239  64.0558290  29.8090172  40.8174372
  63.7895060  30.8498740  39.7512865  26.8608809  45.7165146   1.0851572
  26.7815733  45.1026821   0.3549850  27.4275017  46.4125586   0.7524507
  76.8418760  80.5047233  58.3433676  77.7004964  80.0914320  58.2528496
  76.9297726  81.0747411  59.1072941  25.3816795   9.4924837   5.3760535
  25.3176260   9.2661107   6.3038921  25.8482075   8.7557065   4.9814102
  21.9936323  21.9469953   8.5883063  21.5185666  21.5734768   9.3306196
  21.6592979  21.4728999   7.8269362  13.2671650  74.4198103   6.4932251
  13.7383659  75.0724042   7.0112246  12.4558790  74.8581100   6.2364405
  83.0315716  78.5823573  10.5569172  82.7214463  77.7278311  10.2571869
  82.6279170  79.2081035   9.9554712  57.5917068  75.4308822  62.5176881
  58.4552970  75.3578451  62.9240261  57.7619210  75.8264258  61.6628180
  84.3653360  57.8893807  63.8691626  85.2028671  58.2838549  64.1123991
  84.1541925  57.3066892  64.5986293  56.7019239  14.8964336  64.1798042
  56.3217225  15.5442741  64.7730832  56.8506208  14.1267707  64.7291134
  78.2361944  75.1568300  63.5264969  77.8542478  75.9363628  63.9298296
  77.5026293  74.5480240  63.4400749  20.2587342  20.6157303  10.3031480
  20.0753164  20.6951404  11.2392485  20.5348063  19.7062826  10.1894796
  57.0529032  14.7712004  25.3119230  56.1757421  14.5340073  25.6128550
  57.1674871  15.6773412  25.5982971  64.1078153  45.8559942  59.4017850
  63.2684555  46.1960294  59.7117577  64.6000281  46.6344424  59.1410635
  85.6769664  76.5171141  20.8399177  84.9910529  76.1687244  20.2703762
  86.4120324  76.6897340  20.2516055  46.1498268  77.7075229   8.6374557
  47.0065183  78.1299669   8.6995173  46.2147446  76.9481025   9.2165053
  31.2606812   8.9921463   5.2379775  31.6056395   8.2115191   4.8045525
  32.0370173   9.4496322   5.5608410  59.1326189  11.6455221  30.1641703
  59.0452766  10.9541738  30.8204031  59.8211145  12.2154176  30.5068374
  25.3375673  33.7408614  37.2118282  26.1113310  33.2377148  36.9581223
  25.3502893  34.5060134  36.6368413  34.6588948  46.9681045  66.9541956
  34.5020249  47.1141472  67.8870921  34.5700142  47.8348311  66.5578149
  12.2696312   0.9199740  64.7639517  13.1495245   1.1475350  64.4635723
  12.3242577  -0.0103592  64.9824057   9.9749811  76.0796739  11.4199221
  10.2810677  76.9245861  11.7495668   9.0222509  76.1661584  11.3874209
  78.3851447  47.7459993  63.6082600  79.2454687  48.1038662  63.8273631
  77.7776351  48.4683760  63.7674402  81.0645778  57.3518396  24.0931344
  80.9733875  58.0174328  24.7749734  81.8855293  57.5712324  23.6525249
  67.4563313   0.8280855  16.9751787  67.8032351   0.2793019  16.2718129
  66.8585634   0.2540769  17.4541581   1.5826670  59.6253481  56.5993069
   1.3516251  60.5512395  56.6739987   1.2034622  59.2201974  57.3792373
  66.6725579  50.7666036  67.6879512  67.2691145  51.2340500  67.1032761
  67.1541872  49.9794199  67.9421325   2.8115399  63.8427139   8.7152177
   3.5252650  63.8624824   9.3527418   2.6588567  62.9113794   8.5554200
  13.8580854  65.7134224  53.1846428  13.7385424  66.6389144  53.3977318
  14.0239723  65.7041741  52.2419739  63.5160727  74.8017366  50.5377102
  63.5140700  74.8813642  49.5838308  63.0434699  73.9875997  50.7110882
  68.0038555  46.5438367  30.0359154  67.7107288  46.2065316  29.1894317
  67.5705309  47.3933507  30.1182961  36.1030006  14.9286103   1.1429627
  35.3796434  15.3651619   0.6930633  35.6796885  14.2718923   1.6959189
  12.3715170  52.1590901  62.3905563  12.3236187  51.5991713  63.1654310
  11.9195993  51.6628004  61.7081356  50.7424355   1.0511758  19.3543398
  50.7476234   2.0049018  19.4356537  50.2213573   0.8805168  18.5697484
  41.8278122  10.1440310   9.8594141  42.1376419  10.9593236  10.2537930
  42.6096869   9.7554880   9.4670677  18.1132495  10.6059206  10.7180011
  18.3806217  10.3324223  11.5954649  17.6327002  11.4219141  10.8574915
  26.6187978  16.3976943   8.4047163  27.1039414  16.7379856   7.6530045
  27.2912145  16.0249078   8.9749092  80.3002644   8.2352680   4.0030578
  81.1696243   8.5984415   3.8341016  80.4296303   7.6365215   4.7385851
  33.5240149  51.8458128  18.9192486  33.4871793  50.9044933  18.7495840
  33.5280442  52.2459364  18.0496979  72.7366557  45.2436604  70.8119757
  72.0909515  45.5201121  70.1616901  73.0350032  44.3877276  70.5044062
  73.6381531  10.2509916   5.7574457  72.8518391   9.7619838   5.9999728
  73.3363056  11.1533117   5.6528574  85.0210030  65.5989898  23.6396170
  85.6160767  64.8567463  23.7454104  85.1586087  65.8896888  22.7380681
  36.9173288  49.6966696   0.1038549  36.6546535  49.7555590   1.0224225
  37.7911377  49.3067360   0.1291427  86.1859138  58.9470793  24.6022391
  86.0749323  59.5576335  23.8734484  85.7124526  59.3525768  25.3286266
  70.9191575  48.9846339  64.6531854  70.2487293  48.8254144  63.9887999
  70.9430948  49.9370363  64.7458564  42.5390911  17.4474311  43.0400610
  41.9727850  16.9266748  43.6095715  43.1329727  17.8982770  43.6402893
  49.1497898  53.0854368   0.5150149  48.9690447  53.2607269  -0.4084769
  49.9451494  52.5529289   0.5065267  19.6634491  74.7848607  29.8239875
  18.7590130  74.8754973  29.5239711  19.9603184  73.9582331  29.4434786
  34.6509647  18.4453654  61.4971685  33.9847779  18.2914066  62.1670389
  34.3113971  19.1800034  60.9860611  26.0544562  14.0814722  35.6386209
  25.4018974  14.7738004  35.5333495  26.6933322  14.4456708  36.2513447
  28.9430690  48.7482119  33.7024021  28.4117675  49.5204735  33.5085893
  28.7359834  48.5373592  34.6128368  24.8661383  54.4722796  40.6185865
  23.9467009  54.3736316  40.3713274  24.8401506  54.9231196  41.4625645
  58.5398910  75.2537144   9.0638423  57.8332723  74.6805943   8.7664288
  58.8030309  75.7360459   8.2800400  75.9822376  79.6334141  21.2305236
  75.3031010  79.4711628  20.5757880  76.4903624  80.3616513  20.8731556
   2.3217447  76.8925265   7.5089270   1.9075449  76.0312725   7.5628817
   2.8104814  76.8721301   6.6861552  18.0649769  53.8568401   7.1565604
  18.4684801  53.1346989   7.6381534  17.2310770  54.0056372   7.6023203
   1.7249743  81.9295480  63.3224557   1.8189684  82.1412160  64.2512147
   2.3121992  81.1861303  63.1856064   7.8446897  79.3067744  11.0193539
   7.3945482  78.5504726  10.6430423   8.3282431  78.9511163  11.7649508
  29.4193792  20.1203895  43.7110615  30.2022409  19.5793879  43.8143921
  29.6196675  20.9252501  44.1888857  25.2598238  30.9831309  44.8313332
  24.9928164  30.1890731  45.2943802  25.0412369  30.8112454  43.9154148
  38.6698341  38.3418703   0.5022682  39.0545249  38.6313820  -0.3250346
  39.2737794  37.6737237   0.8264007  35.7343808  64.6452572  67.4673866
  36.6089907  64.9421694  67.2161265  35.7872739  63.6900618  67.4352009
  21.2277555   4.4056571  31.0624003  20.5630207   3.7793863  30.7757950
  21.8533468   3.8797024  31.5606356  39.6323848  22.4561262   8.5384512
  38.9227700  23.0541158   8.7731552  40.0916195  22.8980112   7.8242594
  53.4642663  57.2157147  68.3444986  54.0089860  57.9981758  68.4297429
  53.8185826  56.6055825  68.9913617  13.9823349  70.1657809   6.3093930
  14.3765362  70.9706737   5.9732598  13.0465038  70.3604246   6.3600332
  10.5088544  42.7023602  23.7176156  11.2830377  42.9535103  24.2213964
  10.2426136  41.8619967  24.0906191  15.9001565  12.2714269  28.2440925
  15.7425129  11.8076634  27.4217153  15.5211186  11.7041194  28.9154506
  71.5517337  80.9826983  50.1398563  71.1026938  81.7436235  49.7716331
  72.4683113  81.1018955  49.8910379  58.5533237  26.0985065  32.5648212
  58.2687140  25.3443098  32.0486641  57.9425621  26.7959809  32.3266292
  58.3796274  75.0870074  43.7066078  57.8366951  74.5906235  43.0941868
  57.7889917  75.3055287  44.4274616  40.2864361  23.7658548  42.6196146
  40.6902075  23.9254761  43.4726810  41.0088110  23.4739423  42.0635700
  10.7090449  14.8543561  29.2802739  10.9405339  15.1649344  28.4049535
  10.0074196  14.2204165  29.1317034  86.1004796  22.6528563  59.2804585
  85.8699623  22.4536075  60.1878689  86.7687812  23.3348622  59.3473314
  71.2885061  34.2269828  69.7940681  71.4846530  35.0360426  69.3216485
  71.9353834  33.5990044  69.4724731  31.4762592   2.9437178  19.8044312
  32.2479153   3.0770358  19.2539716  30.9113979   2.3674984  19.2895198
   2.6119383  67.4380685  47.8815651   3.0270536  67.6665760  48.7132454
   3.2549365  67.6853836  47.2170210  59.2366528  63.1748343  17.1559405
  59.0343356  62.2591866  17.3480046  60.1281330  63.2967354  17.4824893
  56.7588663  17.6396406  25.5567694  57.6667213  17.8218329  25.7993293
  56.2532234  18.3301008  25.9855127  13.9516842  14.6746480  32.4798512
  13.0768168  14.4500244  32.1630192  14.4975603  14.6782494  31.6935682
  76.8509832  53.2080676  56.5814732  77.4432054  52.4603047  56.6611813
  77.0733276  53.6007776  55.7373319  27.7583241  24.1808605  20.3353977
  27.8166699  25.1008105  20.5933142  28.1318879  23.7007594  21.0744405
  50.1256990  13.2341933  36.9918132  49.7743988  14.0899754  37.2376943
  49.3798256  12.7689254  36.6130972  38.9028597  10.5601287  30.8521986
  38.4246039  11.2909675  30.4605627  39.3285012  10.1281238  30.1116371
  43.8987827  28.0284071  38.3905458  43.3509254  28.6249304  38.9006877
  44.4206667  28.6026692  37.8301048  59.8517132   5.1486123  31.4591837
  59.1653490   5.3679335  32.0892882  60.3832817   5.9422970  31.3981104
  67.2933379  63.1294396  64.6214394  66.3524261  63.3048847  64.6330564
  67.3707190  62.2643354  64.2191456  64.1752745  81.8167761  31.5314484
  64.0164376  81.1918013  32.2388434  64.9622918  82.2897264  31.8019176
  45.0499916  36.1806846  12.9313302  44.4822121  36.1806440  13.7019539
  45.0067091  37.0784020  12.6019883  54.5664692  16.4378071  48.4254313
  54.4618177  15.4925358  48.3170605  55.0072575  16.5347683  49.2695475
  27.7768427  61.7126396  68.6403681  27.7100561  61.0834362  69.3586129
  27.8529994  61.1716869  67.8543641  44.0346575  18.5373652  25.5934739
  44.7271013  18.7846184  24.9805999  44.0291262  19.2391324  26.2444162
  17.5812880  68.0906083  68.1862377  16.6389910  68.2344057  68.0988963
  17.8389565  68.6361196  68.9293767  38.1526923  13.2820320   0.6492423
  37.7614403  14.1552770   0.6736709  37.4207616  12.6970315   0.4535772
  36.8257594  63.4913826  30.7785892  36.0431886  63.6670113  31.3010550
  37.4462295  63.1075191  31.3981843   2.3201378   1.2160517  52.0716904
   2.9744561   0.8830573  51.4575110   1.9096549   1.9477869  51.6109286
  58.0729771  30.4261613  18.2324970  58.2826042  29.9910331  17.4060893
  57.2446585  30.8750916  18.0634284   3.1806016  49.9450827   2.1423578
   3.3210602  50.0753307   1.2045211   2.6590127  50.7004595   2.4136078
  59.5365324  46.5046676  67.6368017  59.1611996  47.1468212  68.2392923
  60.4828492  46.6201027  67.7227734  82.7146149  52.2934341  18.1653190
  83.1080627  51.6356325  17.5919688  83.1837845  52.1999407  18.9943993
  46.7732620  28.3038592  28.3102369  47.6430464  28.6925983  28.4029078
  46.6802502  28.1461883  27.3707056  61.4178467  16.8562639  46.8039322
  60.7348204  16.2784696  47.1443081  61.7199802  17.3463678  47.5686169
  66.7441130  49.5822144   3.0624241  67.6322079  49.9213648   2.9506257
  66.1834097  50.3559637   3.0062509  46.4712334  19.5087600  36.6853833
  46.1414099  19.8570406  35.8570433  46.0771990  18.6390817  36.7533898
  85.8800990  61.9668735  34.2253494  86.1810477  62.4642337  34.9858069
  85.0058586  61.6625381  34.4688916  69.0048122  54.6436405  22.0507073
  68.4468222  55.3025675  21.6375566  69.5481396  54.3085814  21.3374329
  53.6946392  46.7839146   4.7160551  53.6355782  47.2994328   3.9116988
  54.5456457  47.0163298   5.0875467  63.2964039  45.7554388  16.5737045
  64.1012049  45.3228140  16.2884521  62.6244307  45.0766468  16.5110111
  52.1028137  21.3137317  19.2335153  52.3919773  20.5385184  19.7148252
  52.7109003  22.0026779  19.5015001  22.7324010  48.1507683  27.6918507
  22.3645306  48.7775755  27.0689416  22.7486039  48.6222219  28.5247350
  80.2958360  72.6747801  66.6632588  79.9919143  73.5822990  66.6466771
  79.5836892  72.1763446  66.2624560  55.2843824  51.0771193  62.5268821
  56.0099807  50.9857168  61.9093202  55.4628458  50.4248681  63.2043408
  45.1116133  42.6225281  19.2602408  45.5467510  41.7984295  19.4787407
  44.3016291  42.3574972  18.8244498  73.7831750  33.4487470  61.6842650
  74.0397230  33.4701177  60.7623325  74.2160573  34.2098316  62.0710401
  36.7664194  44.4864941  18.9130414  37.3034167  45.0020027  18.3112800
  36.3144279  43.8568926  18.3513176  64.2481422  28.6231923  16.4222836
  64.7634315  28.8462663  15.6470740  63.9988184  27.7086759  16.2891364
  56.0574818  15.0215364  33.4412217  57.0072174  15.0895286  33.5392332
  55.7228422  15.8580410  33.7644958  33.0003953  54.1119337  23.6965680
  32.7251482  53.3831787  23.1403470  32.4709392  54.0217638  24.4888902
  23.9982143  66.1532452  68.5451174  23.5525051  65.3200199  68.3924265
  23.2908264  66.7947438  68.6108296  20.0639343  28.6136651   1.4077406
  20.5275249  29.0083170   0.6691159  20.7515907  28.4135604   2.0428130
  31.8788457  23.9178777  12.8238308  32.0388389  23.0507159  12.4514556
  32.4835253  24.4944119  12.3567116  16.5334630  21.8592668  34.0464425
  17.2385836  21.3220978  33.6852121  15.7448614  21.3294673  33.9295959
  14.9401243  64.3928016  14.1464114  15.3217705  65.1612378  14.5707726
  15.2198418  64.4597114  13.2334423  30.3056717  12.2745001  46.4198589
  29.9816322  12.3243546  47.3191595  31.2564588  12.3468876  46.5035009
  40.3430700  19.6342540  20.2743340  40.8822107  19.3890631  21.0262918
  40.0446129  18.8002825  19.9115038  55.3275251   6.5195090  14.9223113
  54.8188686   7.2276813  15.3172719  56.2322855   6.7056656  15.1732755
  52.0595694  24.9788713  16.9404125  52.3336029  24.0922737  16.7057133
  51.7022324  24.8930407  17.8242540  33.4968002  77.9625005  32.3540044
  34.2185028  77.5630538  31.8683934  33.9070852  78.3209021  33.1410551
  59.3889046  32.6670194  21.2046576  59.4257355  31.7193294  21.0752082
  58.8566589  32.9877043  20.4765749  28.1310964  25.4294562  33.3552527
  28.1467056  24.5401788  33.7090516  29.0316105  25.5911279  33.0738854
  29.4290543  37.5345039  29.5479012  29.8004174  38.3062077  29.9754429
  28.9975667  37.0537353  30.2542377  32.7643847  50.9793997   8.6003262
  33.4086442  51.3068676   7.9726893  32.6295853  51.7073727   9.2070532
  26.7206931   7.8233677   3.8750258  26.2226367   7.2685897   3.2746971
  27.6234865   7.5163901   3.7916115  42.0335197  33.9770317   5.3016579
  41.4119387  33.4499812   5.8037394  42.4774122  33.3473563   4.7335917
  73.2854326  79.9918286  14.3393505  73.8444717  79.7162391  13.6128819
  73.7464959  79.6929214  15.1231277  61.2221146  30.5396175  23.7625289
  60.3968811  30.7811570  24.1830993  61.5168571  31.3432837  23.3341837
  57.1295691   3.0495399  37.3345542  56.3318014   2.5819948  37.0871687
  57.6092339   3.1560928  36.5130901  71.4724636  47.2508764  12.7647781
  70.9405565  47.8863430  13.2438278  71.1812019  47.3310184  11.8564963
  79.6833754  38.9369488  21.3843346  80.0641060  39.5390010  20.7449508
  80.3822041  38.3090949  21.5678287  22.0070751  19.0899350  59.0734433
  21.6438683  19.4896103  58.2831441  22.1894892  18.1845881  58.8218449
  28.5623177   6.4781739  62.9157655  27.6377733   6.6399075  63.1036137
  29.0287741   6.8689705  63.6546342  52.4367865   6.0388972  61.4365743
  52.9738195   6.1211707  60.6485043  51.6578444   6.5634943  61.2514393
  46.9454145  20.9844923  25.9975553  46.6350079  20.3603411  26.6535401
  47.8875446  20.8247352  25.9418702  70.6653452  25.9301686   8.5364479
  70.4360104  26.7322874   9.0057462  71.1268234  25.3973866   9.1840684
  74.7248697   2.7305606   5.2352387  74.0613651   3.1705505   4.7038209
  75.2146769   3.4434140   5.6453145  26.2605929   4.0179238  28.5172009
  26.6222811   3.2993847  27.9984403  27.0271420   4.5073724  28.8156533
  75.7640806  61.6991927  63.0727772  75.3423753  61.7372491  63.9312349
  75.1029840  61.3133147  62.4980716  46.6581059  73.1663847   2.5378138
  46.2768888  72.9611349   1.6841289  46.8250322  74.1083622   2.5053465
  73.3394337  42.6221848   1.6368121  72.7179289  43.3501625   1.6382025
  72.7909517  41.8390799   1.5904434  61.4489165  74.4036271  61.1151396
  61.2434187  74.9179985  60.3344832  61.1422696  73.5208776  60.9078972
  76.6140218   5.8210589  48.6645184  76.4541180   5.4767777  47.7858053
  76.2782307   5.1439072  49.2518364  43.2188559  39.7252274  17.0059705
  42.9619646  39.9762821  17.8932190  43.1563759  38.7700891  16.9997501
  35.1375651  12.3100948   7.3668629  35.4843712  12.1088314   8.2360291
  35.7924175  11.9626200   6.7613375  83.5665924   0.4836489  61.3234137
  83.8652952  -0.3996824  61.1072384  84.2968781   0.8722950  61.8049423
  76.0305610  55.1933994  62.7008478  75.6082549  54.8830511  63.5018293
  76.8208900  55.6400397  63.0043702  15.5588007  27.1488476  25.5009842
  14.9699998  26.7960811  24.8338223  15.2598488  28.0485725  25.6327224
  61.7369890  20.3382373   5.0469995  60.8687973  19.9356985   5.0680053
  62.1783257  19.9174070   4.3091953  54.2726088  49.3278980  18.7633121
  54.7987747  49.5811415  18.0048597  53.6616993  50.0547695  18.8844764
  22.8457332  30.1460934   2.9421172  22.2029924  30.5162883   2.3370761
  22.7432752  30.6590652   3.7437367  56.0928488  50.0394297   5.7517415
  56.4904976  50.3316498   6.5719336  56.5293503  50.5579567   5.0758523
  45.5731726  38.6889029  20.9168053  44.6562815  38.4147048  20.9358001
  45.6168604  39.4214988  21.5313196  67.7684489  66.8478944  63.6382697
  67.5835505  66.6447427  64.5552073  68.0116644  66.0070088  63.2509850
  51.7033911  24.3936205   2.4871676  51.6070938  24.2958426   1.5398562
  51.1032057  23.7461424   2.8570175  62.7692461  37.7847457  19.1107798
  63.0412436  37.8720164  20.0243616  61.8190956  37.6767421  19.1530347
  37.2486329  42.0949268  30.0234461  36.5917969  41.6585732  29.4808674
  37.6235318  41.3935804  30.5561733  45.4343748  49.2715549  13.2008576
  44.6284628  48.9956570  12.7642596  46.1280012  49.0706062  12.5725830
  56.7166376  59.9762964   2.9249689  56.7476082  59.6882296   2.0126700
  56.1756516  59.3205738   3.3649567  17.5814247  20.1822066   2.7358991
  17.9332626  21.0690212   2.6584339  18.2983255  19.6721959   3.1129587
  37.1647103  15.1428439  55.2156483  37.4405582  14.2280222  55.2726017
  37.7745921  15.5385901  54.5930205  62.5628662  22.5271511  28.0314136
  62.7708673  21.7066026  28.4782553  63.0120945  22.4615264  27.1887255
  52.2625342  63.8909628  66.3658972  52.3078313  63.2814219  67.1025388
  52.3416939  64.7568037  66.7662530  51.5497112  23.8716722  22.0620799
  51.1778975  23.2452869  22.6830697  51.8410730  24.6036673  22.6057029
  45.1022243  44.8384857   5.4242688  45.0143242  45.7898760   5.3662902
  44.3031979  44.4991112   5.0210178  53.6401463  27.0380449  30.0192285
  54.0600967  26.6839361  30.8031154  53.8056469  26.3822842  29.3418646
  64.3821335  33.2774353  16.9881511  65.2583170  33.5420036  17.2684014
  63.7903023  33.7560701  17.5685596  68.5794392  64.4664385  62.5585173
  69.2582384  63.8053706  62.6943384  67.7927246  64.0856030  62.9487447
  59.6350002  28.5377765  37.3058701  59.3914843  28.4629822  36.3831925
  59.3463850  27.7133512  37.6973462  50.0051594  68.5945368  24.1291404
  49.5268106  69.1880894  23.5502553  49.7969198  67.7199602  23.8005209
  81.0109725  35.4996743  70.1060197  80.7220044  35.9281176  70.9117287
  80.8511510  36.1474653  69.4196851  32.4087667  27.1216273  29.7417998
  31.5493035  26.7866397  29.4861889  32.9754496  26.9203472  28.9970922
  20.9575391  31.6671419  35.9671044  20.0735664  31.3212514  35.8438802
  21.5275025  31.0229492  35.5471182   4.4047070  16.9609189   3.3683333
   4.0251637  16.2589061   2.8397903   4.3407441  17.7390265   2.8145388
  59.5296383  53.1632090  21.0407209  59.7093010  52.5472355  21.7510200
  59.2440987  52.6119709  20.3121376  25.4176331  24.7245741   8.7964916
  26.0265970  24.1438723   9.2527604  25.8247852  25.5891490   8.8509768
  66.2247515   2.3746248  46.7435217  67.0096779   2.9044354  46.8828726
  66.4332438   1.8332791  45.9821367  55.2212954  22.4829960  18.4976149
  55.0644207  22.7510834  19.4030166  55.4064608  21.5455723  18.5540509
  51.7281580  11.1706555  35.5673599  52.5840187  11.0722685  35.9845591
  51.2827969  11.8383753  36.0889316  36.9575214  59.1898966  25.4347777
  37.2899628  59.1114807  24.5405912  37.7430511  59.2114067  25.9813237
  16.7241684  56.1482074  55.8394693  16.6009155  56.8052997  56.5245019
  17.6712767  56.0142817  55.8036683  17.7061239  56.1815503  69.6727411
  18.0192688  56.1992087  68.7683849  16.8653908  56.6382518  69.6440510
  39.3336177  17.4331796  35.1414180  39.7081184  17.9165661  34.4049954
  39.9924493  17.5012517  35.8324599  71.4151192  37.2809577  20.5738807
  71.9179583  38.0270410  20.2471542  70.5071926  37.5840807  20.5704379
  74.6630812  66.0299921  22.2106290  73.7861109  65.6904221  22.0321727
  74.7568893  66.7749119  21.6168928  32.7237988  46.8761396  21.6571236
  33.3737946  46.9739628  20.9613013  31.9281030  46.5971088  21.2040854
  20.6950784  35.7144380  53.7402296  20.6215715  34.8752594  53.2856894
  21.4294267  36.1549616  53.3125544  54.1067973  67.5408509  60.5433999
  54.0590778  68.2881381  59.9471472  53.3641806  66.9896653  60.2965318
  52.0779657   5.0858569  36.1658812  51.4519215   5.4543144  36.7892122
  51.5435553   4.5553821  35.5749178  58.2213879  40.6442451  16.0683417
  57.6200676  39.9836969  16.4123273  57.6895237  41.4365578  15.9935737
  32.0968437  40.9608173  28.4989405  32.4347806  40.5142546  27.7226591
  31.7956352  40.2539539  29.0697742  82.0373344  18.5537219  23.0131912
  82.4499321  18.0073476  22.3442602  82.7377701  18.7349904  23.6398959
  23.1277728  31.2842417  21.6552854  24.0705752  31.1836362  21.7865634
  22.9268003  30.7126856  20.9142280  86.0545921  63.6893749  12.1443665
  85.2904892  64.2518330  12.0178425  85.8257294  63.1393909  12.8936136
  23.0692506  39.1392422  23.8606668  22.2327375  38.9554214  23.4332514
  22.9809117  38.7576485  24.7340608   3.1021229  49.6707996  65.3560607
   3.3527342  48.7585368  65.2104436   3.8049522  50.1796874  64.9519567
  71.2033906  66.7109039  64.3539439  70.9191480  67.6176765  64.2390500
  71.2864986  66.3712242  63.4629093  85.7822024  24.6524954   6.1406153
  84.9650297  24.1759133   6.2866646  86.4467922  24.1324592   6.5924042
  48.7080765  19.3154371  19.8764563  49.0151262  18.8635266  19.0904975
  47.7957535  19.5338190  19.6861744  55.0620270  28.0411553  15.0471258
  55.5175734  28.8542128  15.2654099  55.2930689  27.4396873  15.7550037
  21.1083007  40.4190302  29.7168088  21.8219137  39.8499274  29.4285250
  21.5450120  41.1386108  30.1725721  77.1775389  28.5910892   5.3335285
  76.7003298  28.5314918   6.1611474  76.5189266  28.8684940   4.6967342
  14.5043190  81.7570251  35.2309060  15.1870735  81.4959732  35.8489084
  14.9223478  81.6952895  34.3720269  52.7009106  21.5893078  26.1532187
  52.5428295  22.0506310  25.3295565  53.3660841  22.1145463  26.5980768
   1.7694870  48.5507324  47.1302353   2.1872440  48.1257012  47.8792749
   1.6604153  49.4620123  47.4020873  52.9313183  30.7980776   8.0205840
  52.2345734  30.2854466   8.4304518  52.4719381  31.4946437   7.5515413
  44.2808008  22.5761795  38.2097125  43.8013077  23.0459785  37.5273585
  43.6966181  22.5930047  38.9677882  81.8580499  60.0591328  67.6503514
  82.6094594  60.3791215  67.1511321  82.2246423  59.8013797  68.4961666
  29.9670267  38.9060616  26.3225889  30.9021759  38.9359379  26.5246677
  29.6980977  39.8243451  26.2968230  17.2935581  70.1729536  49.1010332
  17.1556377  70.9963465  48.6328077  18.2410765  70.1256084  49.2283154
  25.6547451  22.6983237  15.3452563  25.3367543  22.6828122  16.2479603
  25.8256769  23.6231899  15.1673889  54.7828674  45.4964781  20.6874943
  55.4877710  45.7287073  20.0829983  54.0324736  45.3144789  20.1217961
  34.9448180  39.5700240  20.1643610  34.6061063  38.8174248  20.6492352
  34.9415588  39.2870021  19.2499650  62.0267391  31.4582777  20.1081300
  62.7161646  31.3017154  19.4628298  61.5735054  30.6185079  20.1829267
  26.1228004  53.5701706  65.8464463  25.9879604  54.4753256  66.1270590
  25.2449814  53.2509913  65.6371848  40.7340765  25.4117131  12.9106498
  40.8043242  26.0873508  13.5850441  40.4089546  25.8760691  12.1393526
  49.4896746  36.0606265  11.6494918  49.2987108  36.4090824  12.5203204
  50.4088259  36.2816453  11.4993453  34.1952249  41.0232051  59.3064855
  34.7867205  40.2718775  59.3497430  33.4641757  40.7217602  58.7671076
  57.4686670  43.7160349  23.7639713  57.8765059  43.7729597  24.6280670
  57.2452211  44.6205521  23.5445309  66.5198565  25.3804135  30.4820275
  66.9901896  25.0469518  31.2461090  65.5987310  25.2010918  30.6707191
  32.6081061  64.3119383  25.6762958  33.1721139  63.6203718  25.3300858
  32.2983479  64.7792244  24.9004531  63.8833418  66.5553977  66.2089138
  64.5924178  65.9280374  66.0679741  63.1013360  66.1103227  65.8824129
  33.7556672  64.9527693  12.5706053  34.3983054  64.4347095  12.0859802
  34.0570545  65.8564758  12.4772727  51.0348272  18.2101190  34.8110509
  50.1787615  18.1982160  34.3829775  50.8891010  18.6929381  35.6246114
  16.9387186  47.2102356  12.2003365  16.9716322  46.4318562  11.6442168
  17.8108215  47.2622156  12.5914478  82.9532528   6.2328053  43.0848932
  83.2265759   5.3526843  42.8262138  82.9572296   6.2132567  44.0418863
  31.2720299  10.3070354  17.1032667  30.9881592  10.4557538  16.2013054
  31.6468191  11.1440301  17.3774981  42.5526571  42.2544909  18.2280540
  41.6766262  41.8830061  18.3319902  42.4122143  43.0666447  17.7413130
  45.5343969  39.3650795  68.9178060  44.8812349  38.6704327  69.0018892
  45.1772221  40.0926091  69.4270827  53.8253260  30.8313990  26.7795110
  54.4600582  31.1680126  27.4119973  53.0291891  31.3354802  26.9477248
  76.5594306  74.8863318  52.7045642  75.7665935  75.1056316  53.1940006
  77.2768512  75.1699760  53.2712053  45.2903032   9.6044379  24.2616081
  44.8701429   9.5338690  25.1187634  45.0795460   8.7801760  23.8229704
  36.7868614  53.8716030   1.7063592  36.0223174  53.4346819   1.3311231
  36.5916991  54.8053885   1.6276909  77.3304987  33.4912801   6.3550174
  77.0109129  33.4962368   5.4527569  76.5987825  33.1458592   6.8663931
  30.2237900  76.2443615  57.4467659  29.6927650  75.4582537  57.5743437
  29.7675331  76.9245965  57.9420853  85.9019914  81.1710622  51.9482504
  85.0248828  80.7904889  51.9026838  85.8851161  81.7183616  52.7333699
  82.5458827  74.9383333  69.3149055  83.2038036  75.0854328  69.9944154
  81.9499174  75.6832578  69.3932834  36.6199756  27.8771257   1.0817536
  37.0957994  28.1119728   1.8784159  37.1798491  27.2320342   0.6497472
  75.5050516  46.6399431  20.0043368  75.8601952  45.7591486  20.1239562
  74.8807859  46.5507221  19.2842257  71.3802305  58.2347097  54.6635590
  71.8836465  58.4899976  55.4366265  71.4055696  59.0051367  54.0960811
  44.7558880  34.4080186   1.2378135  44.0699625  34.1878939   1.8681163
  44.2974186  34.8717332   0.5370958  34.0623243   2.8589846  70.1999880
  34.2003115   3.2658888  71.0553360  34.9119099   2.4794985  69.9754290
  39.6526170  50.4055214  12.7445328  40.3013372  51.0837317  12.9327273
  38.8453412  50.8886290  12.5680459  24.1620167  62.0942880   6.9174814
  24.3986233  62.6199509   6.1533296  24.6454533  61.2759376   6.8042421
   5.9182580  80.5595273  39.2738080   6.3798841  81.0806938  39.9307084
   5.0079306  80.5531243  39.5696020  35.3002286  46.4244843  22.8353167
  35.2059007  47.1228981  23.4830475  34.4189858  46.3058329  22.4809694
  46.6835546  43.7414932  35.3923941  47.2588015  44.5061874  35.3686404
  45.8731461  44.0635824  35.7870197  75.8497095  41.1577988   4.8381105
  75.0462675  41.6755772   4.8892751  76.3728428  41.4531374   5.5833203
  82.4635663  66.6512778  53.3607422  82.9791847  66.2732007  54.0730809
  81.5869251  66.2856915  53.4794114   3.8270283  42.2625256  25.7684517
   4.5278454  41.7106676  25.4212713   3.8594819  43.0556679  25.2335668
  40.2996683  39.5157456  46.0414267  41.1031628  39.1015053  45.7267284
  39.6773005  39.4084454  45.3221369  40.3608084   8.8227767  19.0905237
  40.0997066   9.2815411  19.8890185  39.6222520   8.9420038  18.4934056
  44.4687843  18.7926447  31.9618678  43.5429287  18.5858583  31.8343568
  44.8912764  18.5097635  31.1508751  50.0375462  39.6672010   8.7846106
  50.9749031  39.5528007   8.6280584  49.6234369  39.4019985   7.9633832
  74.8565054  26.1237097  22.5141931  74.3719530  26.6980672  23.1071138
  74.4518375  25.2639747  22.6296401   7.2850974  43.7574078  55.3808783
   8.1725462  43.3996083  55.3555547   6.7462476  43.0919339  54.9530695
  51.6356340  74.7710326  61.4339892  51.1788073  75.1980188  62.1587120
  50.9356251  74.4286420  60.8781241  22.9911669  74.7397841  19.8463023
  22.0675285  74.6181853  19.6264434  23.0465754  75.6436742  20.1563740
  52.1662903  36.2564993  12.6192153  52.7526617  36.4647198  11.8918598
  52.1765900  37.0411539  13.1673396  45.0877953  45.8590460  16.9080126
  44.7568083  45.8972502  17.8053522  46.0166121  46.0769272  16.9858444
  65.5159321  54.8268082  62.0306586  66.0638562  55.5367710  61.6960470
  65.6298747  54.1177096  61.3978641  29.8764999  74.9065209   8.7706071
  29.1337975  74.4301123   8.3995759  30.3807600  75.1943041   8.0095994
  48.5580309   8.8761975  69.1514027  48.2592876   8.5205866  69.9883746
  48.7944897   8.1059624  68.6346273  63.3329391  39.2457771  15.1350129
  64.1558886  39.5780802  15.4935658  62.6562738  39.7719455  15.5610430
  53.7077482   0.1033284  54.5986865  53.7301405   1.0459496  54.4337688
  52.7890261  -0.0844310  54.7908793  78.5801506  48.1090260   5.9463125
  77.9117680  48.4761810   6.5248358  78.9089537  47.3426867   6.4162558
  14.8899761  63.3175924  70.1522563  15.3554073  63.6171224  69.3713032
  14.4516150  64.1007807  70.4849535  78.7835183  41.2020627  64.9457399
  78.2985416  41.7409190  64.3207095  79.3959394  41.8093561  65.3609107
  67.2837162  24.5987344  18.8201749  68.0570364  24.8466086  18.3134568
  66.6426182  25.2833676  18.6291194  73.1782689  71.2227180  43.0159579
  72.2868553  71.5675666  43.0678902  73.1616321  70.4333999  43.5571895
  10.5974062   6.9535090  53.4027479  10.6008418   6.3446213  54.1413091
   9.9449666   6.5958907  52.8005348  33.2872828   1.4539887  62.8653251
  33.2170589   1.2388970  63.7953989  32.6185711   2.1239783  62.7232830
  19.2854024  39.7625065  37.3146653  18.5150719  39.2431617  37.0842099
  19.1017724  40.6330204  36.9615126  57.1274185  29.3079305   9.1519856
  56.2795305  29.4961929   9.5543283  57.1210623  29.8070359   8.3352339
  62.3530388  43.0532932  15.3711212  61.6424608  42.4269390  15.5089140
  63.1218100  42.5094271  15.1995599  39.0383625  34.1892004  13.7430346
  38.5442591  33.4329438  13.4265387  39.6014643  34.4320345  13.0080652
  18.4352644   8.3180453  68.5378657  18.4488304   7.9116322  69.4043958
  18.3250244   7.5856472  67.9315106  53.3674009  15.1955153  62.7364163
  54.0958174  15.3787161  63.3297817  53.0374964  16.0591532  62.4883734
  52.6563311  11.0558236  15.1381445  53.4491777  11.3827467  14.7130001
  52.1251535  11.8378556  15.2881765  40.4558428   7.2215821  70.1462550
  40.6353100   6.3754107  69.7363478  39.5422705   7.4048973  69.9271467
  61.1672266   8.2010867  59.8793791  61.5612085   8.9841486  59.4948970
  61.4505823   7.4860026  59.3096493  76.9614697  31.9154429  18.9699268
  76.1594248  31.7833185  18.4644520  77.5898981  32.2610664  18.3360076
  59.9092865  67.7952337   1.9927187  59.0722466  67.4274969   2.2762170
  59.7009897  68.6927271   1.7332067  49.1387375  12.5871397  57.7277468
  49.5124968  13.1946446  57.0894121  48.2142838  12.8303887  57.7771221
  47.9888201   2.7001140  32.0984387  48.4745932   3.2703638  31.5025616
  47.4964809   3.3014125  32.6572561  60.6182631  15.5239512  67.6764662
  60.8556421  15.5741669  66.7505298  60.0886972  16.3062550  67.8307296
  74.8389387  39.7026038  11.2727237  75.5285501  40.3639126  11.3305187
  74.8839569  39.2360425  12.1073055   8.4471758   3.1686236  59.3566285
   8.8843163   3.8546444  58.8521324   8.1937964   2.5159098  58.7039445
   0.0680891  75.5148675  53.4130238  -0.4211410  76.3370802  53.4423087
   0.9761730  75.7814624  53.2696985  31.9429739  35.6742979  65.8697860
  32.5960882  36.1963631  65.4038249  31.7560633  36.1767556  66.6627772
  53.5261686  42.6223446  65.1764361  53.7796171  42.2154976  64.3479036
  54.3555124  42.7945877  65.6222580  23.3380898   0.4441334  48.1862079
  22.6000793   0.3884055  47.5791918  22.9530914   0.2799393  49.0470491
  85.2128696  37.0200944  36.2232804  86.0613632  36.5879917  36.3211823
  85.3826618  37.9349542  36.4478540  14.7156239  38.0224347  38.7443781
  15.3584862  37.6773715  39.3639684  14.9808503  38.9316130  38.6055160
  65.2720070  58.4721470  17.8667200  64.9124575  57.6953220  18.2950950
  64.6486664  59.1689634  18.0719697  46.6618443  48.1890106   4.3996626
  45.8381224  47.7534533   4.1805691  46.4770555  48.6545229   5.2153718
  30.3293808  70.6500090  25.7517099  31.2097366  70.4723407  25.4205894
  30.0253065  69.8069836  26.0879874  16.0901753  76.5478542  70.9970487
  15.5272785  76.0217430  70.4290850  16.7559019  76.9055321  70.4095907
  52.9241037  56.3822412  25.3357673  52.5204706  56.2742996  26.1969662
  52.6406813  55.6137943  24.8404002  68.7758541  17.9417956  18.2131231
  68.2169676  17.4076593  18.7775505  68.6540937  17.5736475  17.3379815
  60.3864574  39.1990376   8.3991903  60.7350922  40.0232267   8.7388992
  61.1614609  38.6653018   8.2238835  32.8746231  74.4881631   1.8716805
  33.4240921  75.2650345   1.9755456  32.2390087  74.5472557   2.5849348
  73.2606044  60.2976956  39.3725239  72.9505697  61.1002924  38.9530621
  72.6553073  60.1589181  40.1009379  40.5309725  32.5571275   1.8034250
  39.6328568  32.4720168   2.1233872  40.4368639  32.7080560   0.8628950
  48.3377218  37.7062035   9.6068406  47.8834009  38.4498358  10.0028586
  48.6655378  37.2017121  10.3513265  54.0221167  48.9826870   7.6945180
  53.2642937  49.5374060   7.5095284  54.6338844  49.1675138   6.9819093
  79.5795312  54.9540510  56.0564087  79.9259391  54.3128123  55.4358886
  79.0875545  55.5705776  55.5141126  16.2483121   6.7871386  26.3158846
  15.8856202   6.3795573  27.1023726  16.4664841   7.6788127  26.5870857
  70.6413937  63.1136322  29.9558377  71.3560915  63.0172873  29.3264294
  69.8775721  62.7493238  29.5085287  39.1440638   6.5262772  50.7731472
  39.5777519   6.4694859  49.9217234  39.4775446   7.3366667  51.1582278
  56.9953156  37.3585105   6.6310096  56.3245583  37.6696706   7.2388726
  57.5879812  36.8386865   7.1739304  50.1885080  65.6474686  23.9581037
  49.8831224  65.1963520  23.1710386  51.0361433  65.2464819  24.1503310
  50.4781055  34.0565276   9.8096043  50.3074884  34.6033835  10.5764627
  50.1964474  34.5907831   9.0669942  18.5907705   1.1306073  16.4068018
  17.6573046   1.3215519  16.3151155  18.8908537   1.7265202  17.0931469
  45.1887560  13.6206114  27.9308844  44.9728966  13.4672666  27.0110369
  44.4254303  13.3017123  28.4124136  83.5042858  22.4750447   9.2658734
  83.1668758  22.1370149  10.0954068  84.4490910  22.3293972   9.3144405
  80.7073021   9.8613346  40.2874947  81.1345863  10.1689768  39.4881082
  81.0208035   8.9635020  40.3963327  81.8504429  46.8391943  19.8230672
  81.4666176  47.5037670  20.3951263  82.7121639  47.1880913  19.5951533
  48.6956039  67.9721238  67.7058153  48.2341496  67.1447613  67.8427930
  48.5388485  68.1843092  66.7856856  61.7057188  22.1824004  42.1103154
  61.5139921  22.9941298  41.6406642  60.8590658  21.7417218  42.1824561
  24.9437626  11.4930989  70.8454469  25.6126936  12.1138932  70.5567014
  24.5832260  11.1349942  70.0342711  15.6542555  69.9372198  65.3445588
  15.4109636  69.0181877  65.4560004  14.9210659  70.4260924  65.7182811
  44.9540997  70.6046486   7.8954345  44.1772223  70.6973791   8.4468830
  44.6080780  70.5121899   7.0077676  55.8450651  38.7881207  21.5227580
  56.3745403  39.0422225  22.2786164  55.0376463  39.2938852  21.6150141
  11.0121790  65.5159786  69.6512607  10.4482142  66.1913206  70.0282074
  11.5021769  65.9687903  68.9648990  67.2251947  19.4172551  56.4686988
  67.7357920  20.2158905  56.3356398  67.5569017  18.8082005  55.8089588
  64.7732067  71.7499924  37.4677372  65.5387068  71.1934328  37.3246408
  64.8544359  72.4423075  36.8117404  41.7286634  26.5587401  49.0289259
  41.6347027  26.8285036  49.9425077  42.6155376  26.8279171  48.7897110
  55.7011223  40.4988289  13.9649832  54.8945904  40.5125141  13.4496701
  55.5758667  39.7820568  14.5868969  36.3895082  45.3106880  28.1134796
  36.8294191  44.5724297  27.6919532  36.8390036  46.0838652  27.7723265
  74.1432333  48.5362005   6.8753803  73.4180260  48.6595869   6.2629408
  74.6085548  47.7681637   6.5439808  84.8731224   1.9094705  40.7889938
  85.7268517   1.5242814  40.9865046  84.9169342   2.1239614  39.8571682
  19.1582549  75.0533628  17.8848517  19.3786144  74.2447186  18.3471978
  19.5789552  74.9626732  17.0298553  49.9230003  44.2676687  16.5105081
  50.7122326  43.7444305  16.6504180  49.5377111  43.9106941  15.7102871
  33.3379801   5.5509068  68.7593035  33.1129702   6.1364104  69.4823439
  33.3707006   4.6808411  69.1569717  52.7575350  15.4753935  24.0910769
  53.3500910  15.9327531  23.4944797  52.3007488  16.1750567  24.5580363
  52.1930742  56.8020964  19.1814995  52.4348402  57.3375463  19.9371910
  51.2837029  57.0398760  19.0005744  63.1362391  68.5309792  20.2938056
  63.7794018  69.2363834  20.3644037  63.3374596  67.9491520  21.0267591
  85.5991347   2.4736954  58.0402790  85.8548934   1.5963150  58.3249234
  84.8120100   2.3346974  57.5136422  63.4384537  27.4710321   6.0686427
  63.7364054  27.8971720   5.2649873  63.1383085  26.6075683   5.7847857
  40.1514101  46.4384747   2.7103144  39.3380451  45.9348106   2.7417737
  40.8157730  45.8039951   2.4414523  79.7979307  68.1700230  13.5744405
  80.2447510  68.9763546  13.8321352  79.4655037  67.8074789  14.3955898
  57.7641812  63.0689504  50.3224240  58.2601228  63.7433889  49.8583065
  57.8298250  62.2954109  49.7624622  81.8060780  73.7627506   4.5159259
  82.1043396  73.0612564   3.9369759  82.5597668  73.9475298   5.0763136
  71.3224554  44.3672514  10.6140459  70.5873871  43.9130878  11.0259223
  72.0835304  44.1139412  11.1363792  72.3275566  26.7237973  19.3569303
  71.8783951  27.1720815  20.0735378  72.9778528  27.3553419  19.0495324
  79.9185610  29.3286729  15.6745052  80.1887417  29.0138030  16.5371132
  79.0806437  28.8950706  15.5129051  33.3029516  20.1419808  52.5953685
  34.1748674  19.7482373  52.6264380  32.7061804  19.3970610  52.5233458
  67.7104664  39.5235682  14.6734059  68.4031439  39.9713135  15.1591623
  68.0161095  38.6195421  14.5988870   2.2113896  38.8837838   6.0294080
   2.0416356  38.6307216   6.9368094   1.9143487  38.1350088   5.5123615
  27.9792380  19.6576583  22.4215961  28.0066895  19.3100548  21.5301633
  27.1235514  19.3899643  22.7568102  67.6886177  49.2545176  10.1743412
  66.8107319  49.5686913  10.3907788  67.5516129  48.3633614   9.8529476
   0.6579430  56.3138390  14.9624562   0.8293317  55.5781364  15.5503297
  -0.1268274  56.7287588  15.3205216  14.3060263   5.3482987  59.4802819
  14.3261631   6.1749579  59.9624227  14.2972668   4.6746136  60.1602135
  28.9371228  54.5698547  29.0680981  29.5267057  54.9536133  28.4189796
  28.6097193  55.3185749  29.5665550  63.6780548  34.7353315   0.7744800
  64.6245337  34.6415997   0.8823129  63.5345888  35.6806421   0.7293430
  79.5323467  69.9794197  31.8420076  80.1002502  70.5113745  31.2845612
  79.5192623  69.1203117  31.4201212  47.5263412  34.1134573  61.3184826
  47.0943840  33.8195731  60.5164371  48.3464916  34.5056797  61.0189031
  19.0821234  67.3087480  66.1681144  18.4067026  67.7204206  66.7071564
  19.7614828  67.9776957  66.0831578  63.6959457  74.1729832   5.9495592
  63.2143021  74.8090458   6.4783990  63.0917692  73.9415693   5.2441180
  82.1558285  24.4693899  11.0797942  81.6337681  24.5173740  10.2789295
  82.6886654  25.2644587  11.0663557  75.5217042  74.7393443  62.1497850
  75.9946695  73.9369919  62.3706196  75.0436273  74.9630477  62.9483043
  68.2229233   6.3238639  43.0347204  69.0527582   6.0102552  43.3942461
  68.4714603   7.0335817  42.4424696  68.8633823  19.2896807  28.6887980
  69.1130733  19.3824863  27.7694106  68.6054230  20.1715493  28.9571214
  54.3392706  42.2525740   0.5637135  54.4378757  41.4459848   0.0578248
  54.6697092  42.9399681  -0.0146734  40.7513094  23.0478454  21.8910813
  39.9754977  23.5520482  22.1362925  40.5460787  22.6992702  21.0235524
   9.7988621  77.1344855  66.6039692   8.8891378  76.8405917  66.6515048
   9.9349848  77.3437407  65.6798945  40.6904657   1.6939379  51.8446790
  39.9209316   1.7723490  51.2808488  41.3996180   1.4506413  51.2495814
  40.4749790  71.7763641  65.7882903  40.7720676  71.6599252  64.8858426
  41.1380116  71.3333394  66.3177685   9.6745832  11.0129286  59.9713884
   8.7537201  10.7779337  60.0854884  10.0870975  10.7752205  60.8017860
  74.0825605  32.5150108  48.5652256  74.1152906  32.3364305  47.6253986
  74.9813795  32.7499175  48.7958288  64.4030809  78.9701700  37.6782966
  64.8935175  79.5656919  38.2449126  64.1920090  78.2244825  38.2401085
  -0.0883087  67.0119359  48.6654578   0.8223978  67.1411946  48.4006344
  -0.3034672  67.7943518  49.1731630  12.7276190   7.5920321  70.0755028
  13.5363968   7.5809075  70.5873543  12.9478701   7.1251465  69.2694378
  52.4183512  58.7494421  23.8697648  52.5326920  58.2341242  23.0712652
  52.7916193  58.2041264  24.5622516  70.9050369  26.1021233  66.4347839
  70.9892416  27.0537901  66.3758469  71.4875650  25.8541346  67.1526909
  58.9130306  20.2283549  30.3433657  59.7063589  20.6275964  30.7003903
  59.1878605  19.3535316  30.0688028  27.8542336  24.6074130  67.6405372
  28.4365328  25.3670908  67.6477934  27.4353798  24.6349026  66.7802839
  20.5137022  52.0231152  11.2644601  19.7640760  52.0383502  11.8594885
  20.6060942  52.9299570  10.9723449  10.5190182  43.3666754  30.1275778
  10.9705163  43.6536884  30.9213042  10.9240246  43.8747025  29.4246483
  56.5625191  59.2686653  11.9781649  56.2708235  58.4869051  11.5091312
  56.3678646  59.9920559  11.3823044  57.5465258   2.9878642  50.7519565
  57.6556547   2.9926468  51.7029034  58.4192904   2.7910592  50.4117022
  40.6539106  16.8167794  18.8737512  39.8326659  16.3272512  18.9201677
  40.9706450  16.6692483  17.9826033  45.6187876  32.2756316  54.6269224
  45.9565218  33.0336310  55.1040040  44.7107037  32.1942831  54.9184690
  83.5841432  66.6982176  65.8925854  84.1011348  66.5197375  66.6781412
  84.0486064  66.2414052  65.1912795  34.1594561  19.5601965  68.3150665
  34.7744997  19.8089196  67.6250712  34.5330198  19.9317004  69.1142316
  24.6374472  37.5309159  69.9873198  23.9924629  37.4734045  69.2823939
  24.2372950  37.0583226  70.7172276  38.6553597  65.5149555  17.2430778
  37.7984309  65.8629179  17.4897087  39.2777705  66.0139465  17.7720797
  44.9244833  61.8102026   9.0633315  44.7131205  61.9727945   9.9826372
  44.2450857  61.2056828   8.7646616  71.7218399  28.2859015  25.8329988
  71.9304132  29.0908265  25.3588462  72.2598076  28.3274078  26.6236305
  17.6239307  11.1011578  52.6351116  18.5563667  11.3174750  52.6333021
  17.4313553  10.8638264  51.7280172  34.0020514  53.7624598  10.7290339
  33.0887365  53.4762144  10.7414091  33.9543438  54.7174788  10.7725048
  81.1944254   7.2887589  41.0665522  81.8803080   6.8425347  41.5632115
  80.3862722   7.0836283  41.5367065  85.4651451  27.1084046   5.6101388
  84.5677567  27.4275684   5.5150336  85.3739738  26.2669325   6.0571760
  35.6852484  66.7617226  18.2444859  36.2335801  67.4200678  18.6712694
  34.9432921  66.6465807  18.8381815  54.3488367   7.6157834  50.9227668
  54.3795641   7.8808905  50.0035249  55.2657850   7.4883295  51.1660646
  80.4477754  81.3115575  65.2641205  79.9269929  82.0118215  64.8708682
  80.8523956  81.7160346  66.0315256  72.5725317  21.7031980  22.0864582
  72.6831007  20.7637715  22.2330356  73.1329250  21.8959117  21.3347578
  74.0963235  62.5292327  60.0111245  74.1138568  61.5865567  60.1763044
  73.5539546  62.8856327  60.7147191  15.5961705  59.9662971   6.2495321
  15.5350686  60.8880854   6.5001351  15.5407525  59.4888687   7.0773131
  31.2659843  23.4170939  69.6550414  32.1690424  23.3951785  69.3384395
  30.7684572  22.9366661  68.9933102  74.4316387  50.8167076  28.2611823
  74.0744209  51.4996243  28.8288522  75.2558804  50.5656052  28.6780739
  30.7222128  10.3399289  11.5096724  30.1405001  11.0678375  11.7287397
  30.3936219   9.6060753  12.0290160  65.1482201  69.0348768  29.8044920
  65.4710722  68.6901760  28.9719176  64.2501640  69.3087864  29.6182060
  32.5472093  45.2160692  24.6062541  32.8370857  45.4184914  25.4957652
  31.7713714  45.7616425  24.4771934  53.0015087  36.7434478   3.9220217
  52.2006178  36.3077331   4.2135006  52.8384399  37.6736736   4.0779617
  30.8573628  42.6113605  16.3191271  30.2381802  42.9879332  16.9444561
  31.2580872  41.8803453  16.7895103  41.3942814  58.7565136  31.3649917
  41.6107655  58.1563711  30.6514072  41.0526371  58.1913853  32.0579123
  76.8149820  32.5427791  64.5740043  76.7966762  32.0018216  65.3634737
  76.5859332  33.4204587  64.8796962  59.7516584  54.9907255  23.2041955
  59.3490028  54.4312382  22.5400615  59.5131397  54.5835686  24.0370035
  53.5263300  69.8761034   6.4591599  52.9312134  70.4379845   6.9554979
  53.5617733  69.0619946   6.9613636  65.2762270  69.1998243  32.6230407
  65.5818129  69.7473860  31.8998361  65.1308632  68.3402395  32.2278023
  71.0705471  61.2684011  32.2187018  71.2566185  60.4851341  31.7009234
  70.7385540  61.9024181  31.5830636  58.4713078  28.1504035  24.6033144
  57.8565598  28.8738894  24.4813299  58.3212662  27.8575850  25.5021906
  76.6843891  46.5372849  13.3911657  76.9177151  47.0905256  14.1366267
  75.7795668  46.7759323  13.1897187  63.7772274  42.1740866   6.5408629
  64.1071510  41.3097382   6.7863935  64.2817450  42.7846050   7.0784110
  74.0921116  52.6776123  23.9144588  74.7081852  52.0194483  24.2361784
  73.6665010  52.2612095  23.1649971   6.5141566   8.4145667  68.5973926
   5.6489714   8.7437607  68.8409361   7.0247276   8.4620453  69.4056593
   3.2916833  50.9578180  27.3286319   2.9596615  51.5442562  28.0083966
   4.1583157  50.6966114  27.6400089  15.8322247   3.1512190  51.7117308
  16.2226208   2.2857977  51.8336318  15.7450445   3.5016705  52.5981937
  16.7794078  15.4354238  35.3209209  15.8959477  15.0915860  35.4531980
  17.3097747  14.6634816  35.1233363  64.2089939  34.0876651   3.5682502
  64.6198940  34.4152999   2.7682203  63.7364531  34.8416972   3.9209145
  33.7300602  80.9144142  66.2944467  34.1361538  81.6681411  65.8664124
  34.4601551  80.4480126  66.7014526  64.1794348  16.6592014  48.4757328
  63.9051008  17.5762331  48.4706926  65.1241302  16.6926336  48.6262798
  48.2243729  59.0769577  28.8146138  47.9722786  58.2240343  28.4607744
  47.9501867  59.0465403  29.7311997  82.1799850  29.3546700   7.0244545
  82.5858879  28.9176822   7.7731335  82.5298786  28.8958311   6.2607282
   6.4471341  20.7886577  24.5158410   5.9060097  21.4561033  24.0940142
   6.5442658  20.1049900  23.8529730  79.4301283  75.5945778  14.4376671
  79.3430852  76.5401554  14.3171072  79.2040568  75.4484272  15.3562331
  73.9368296  71.0908365  52.6100683  73.8550234  70.1399994  52.6839066
  73.1231499  71.3693237  52.1898270  26.6657202  12.6820230   9.7248387
  26.9594519  11.9154119  10.2170467  26.1801951  12.3193311   8.9839220
  52.5290735  11.8311049  56.3041459  52.5061758  11.9648434  57.2516797
  51.6854628  12.1613909  55.9951852  85.4009247  40.7683849  39.9014950
  85.2243710  39.8408175  39.7444129  84.5764542  41.2077713  39.6931195
  78.7876034  52.6733112  25.6843543  77.9812527  52.9731321  26.1040425
  79.1714907  53.4659481  25.3094006  78.3412504  68.6735487  22.2957683
  79.1574478  68.8130283  22.7759790  78.6097956  68.6151600  21.3788700
  74.9117811  27.7643134  61.6546945  75.4531439  28.4999968  61.3684486
  74.1666468  28.1725289  62.0955603  56.4049959  78.2147980  21.8810797
  57.1019411  78.1085300  21.2336206  56.5714073  77.5282526  22.5269866
  73.2655811  65.8250237  14.6185195  72.7500391  66.6313457  14.6357226
  74.1754293  66.1223221  14.6234977  59.5895878  68.0196836  63.0517755
  60.0649181  67.6075103  63.7731711  59.6219460  68.9560654  63.2476620
  65.9087658  72.2020054  13.6471593  66.8070984  72.4763823  13.8314176
  65.7162619  72.5745487  12.7867031  52.2964907  69.1408014  21.8887234
  51.4143038  69.1682434  21.5182877  52.8200579  68.6885118  21.2272501
  82.1055031  51.0575533  40.5472612  82.6509762  51.1841536  39.7709465
  82.2479343  51.8458509  41.0712147   1.3661957  50.4622650  37.2467971
   1.6982747  49.9692965  36.4965057   0.4957009  50.0976753  37.4066257
  65.2586746  64.3071651  23.4813452  64.4656944  64.2330885  24.0123177
  65.6772375  65.1119328  23.7869453  84.0947437  65.5930376  55.1479435
  84.5222378  66.2215424  55.7297134  83.7401485  64.9256706  55.7354069
  77.4019146  43.9995575  27.0817375  77.7709770  44.8807287  27.1413660
  78.1644678  43.4213209  27.0621753  29.2061193  12.2161318  48.7767349
  29.2535170  12.4235464  49.7099911  28.4275969  12.6793839  48.4676610
  59.3963099  55.3119946   0.3137354  59.1749907  55.4633141  -0.6051513
  60.2329016  55.7608557   0.4356581   3.6738293  10.9635209  18.4814751
   4.5926659  10.9107923  18.7445104   3.6557715  11.6450547  17.8095961
  26.1387022  42.4923874  59.1392015  26.4533051  41.6824604  59.5407925
  25.9670980  43.0754544  59.8786746  41.8589123   7.9170920  66.9712831
  42.3129566   7.5802971  67.7437104  42.5086554   8.4655739  66.5316965
  81.8952179  53.8007116  14.2239976  82.3227882  53.4620857  13.4373879
  82.3424530  54.6279860  14.4024158  70.9288454  62.0407820  40.2940321
  70.1480055  61.5665674  40.5797482  70.6813478  62.9638958  40.3473663
  12.4418395   3.3799314  41.1686707  12.7741425   3.3768128  42.0663309
  13.2270329   3.3429193  40.6224728  74.0464346  14.1360711  43.1957912
  74.4791834  13.3042096  43.0035353  73.1151716  13.9574002  43.0651760
  80.0891495  59.4350243  17.0318496  80.0058842  58.7591171  16.3592041
  79.7868395  59.0117741  17.8354049  41.0466337   1.3561381  10.7447648
  41.7241144   0.7651322  11.0733473  40.4131079   1.4154050  11.4598620
   5.8481804  68.0703285  67.3563136   5.6404511  67.3513200  67.9530592
   6.6240278  67.7714040  66.8820332  22.1771009   1.6661335  55.1837753
  22.6108368   0.8181549  55.0887202  22.1761997   2.0350434  54.3005215
  59.4114590  72.0240498  45.5483150  59.3634844  72.9412556  45.2787542
  59.0833521  71.5351391  44.7936344  58.9456367  30.6425548   3.2779747
  59.6444225  31.2608933   3.4914836  58.2457066  30.8488703   3.8974640
   8.6042588   1.5035962  32.1949816   9.4631283   1.2486123  31.8579984
   8.6001341   2.4593019  32.1416664  75.0928354  54.9604416   2.3818152
  74.6942282  54.7890949   3.2350361  75.8452129  54.3697882   2.3459938
  39.8353775  57.8482701  68.8143083  40.0401361  58.6084725  68.2698871
  40.6041153  57.2833706  68.7357387   4.0371609  24.8502088   7.8976965
   3.7077237  25.6188273   8.3634484   4.6574116  24.4489408   8.5063887
  35.9859603   5.0393914  60.8746147  35.2178042   5.6072187  60.9356642
  36.3235228   5.1872682  59.9912024  57.6973677  61.2427568  26.8279362
  57.3353815  60.8809900  27.6368380  58.4072304  60.6445169  26.5946269
   9.2035778  17.3216988  49.7342072   8.5459669  18.0170132  49.7164760
   9.1155608  16.9309021  50.6035529  12.8037182  61.5194609  69.4253285
  13.3222977  61.5075042  68.6208658  13.2347647  62.1709444  69.9784997
  28.7372344   7.7755021  24.7383833  28.4345286   7.9255342  25.6339765
  28.7197726   8.6416959  24.3313861  68.2789135  73.5730028   4.4293305
  68.9069939  73.0873156   4.9639845  67.8710175  72.9075718   3.8752103
  15.9879018  57.2100496  25.3738570  15.9290124  58.1265068  25.6438088
  16.3650132  57.2430897  24.4946933  72.7828884  60.6202650  34.3597388
  72.2403383  60.8033466  33.5926986  73.3715439  59.9210835  34.0753722
  52.3729570  37.3098828  63.3542822  53.0572851  37.9360033  63.5907058
  52.2647245  36.7671181  64.1352580  85.2797318  57.1542215  16.6308331
  84.5052624  56.9143391  17.1396399  85.8211613  57.6554108  17.2406638
  49.8066854  74.5984364   1.8936664  48.9161491  74.7670126   2.2014973
  49.7172070  74.4959450   0.9461846  70.0317383  38.8328171   1.6732743
  70.8172178  38.3637142   1.3918521  70.3557444  39.6791029   1.9815832
  13.8033391  40.6636143  10.7867086  14.1816426  40.3670406   9.9589664
  14.5380212  40.6613398  11.4002728  67.8212833  59.4568062  38.2585979
  67.8544378  58.8054228  37.5580049  68.4667730  60.1159811  38.0035138
  26.6874655  18.5820652  59.6500860  26.9866093  19.1578461  60.3538035
  26.8045481  19.0980078  58.8523851  35.5805182  63.3260584  11.5810299
  36.1905646  63.9071703  11.1267304  36.1188173  62.8747797  12.2312713
  39.5265730   9.8507382  65.7572530  39.0691240   9.9423243  66.5930654
  40.4550703   9.8844983  65.9874363  58.0550043  13.0161237  13.9210546
  58.1766693  13.9651345  13.9494216  57.6702611  12.8495835  13.0605483
  40.9671028   2.8851105  64.9801426  40.5914267   3.7160756  64.6892886
  40.4430445   2.2174193  64.5376693  75.0901182  25.5036093  50.7612406
  75.3520830  25.3508402  51.6691314  75.4369791  26.3715054  50.5546747
  80.8612251  15.7528353  18.3744049  80.3765488  16.4737165  18.7764561
  80.2099705  15.2918208  17.8456724  42.3322201  50.7503080   2.2682655
  42.0449495  50.5592251   3.1611243  42.5758219  49.8978472   1.9074354
  65.7599688  51.6954422  39.2508674  66.5095997  52.1991110  39.5680499
  65.1496315  51.6843510  39.9881577  35.9042113   4.7892808   2.5047618
  36.4593737   5.0175618   1.7591652  35.4950183   3.9610910   2.2539936
  74.2226982  66.0632372  17.4963701  75.0162840  65.6333685  17.1775150
  73.5874176  65.3535366  17.5910580   5.3055588  78.0531719  56.5090929
   6.0513321  77.5623157  56.8542145   5.5725447  78.3041384  55.6248055
  64.5273352  58.4318590  41.0450268  64.9050140  57.6996422  41.5323114
  64.1006279  58.0235577  40.2917385  66.0255568   4.4259023  33.9424992
  65.6507747   4.3979787  33.0621648  65.5061547   5.0848912  34.4031453
   5.9115506  60.9857607  62.1467066   6.4003373  60.7633638  61.3543320
   5.9444619  61.9414997  62.1880913  13.8163916  73.7509086  63.3036761
  13.5502306  74.6692922  63.2593600  13.3679453  73.3357599  62.5669382
  21.5467954  69.1787577  39.0122581  21.7363000  69.6117067  39.8446488
  20.7133579  68.7315178  39.1591978  42.8376102  52.2612619   8.0221343
  42.7238512  52.7652884   7.2163755  43.6398458  52.6094866   8.4112239
  44.7865678  72.0593023  40.2383900  44.2055226  71.2993765  40.2720451
  44.3772221  72.6997423  40.8202028   7.4564648  57.2510576  23.8225603
   7.6209069  57.7848816  24.5998788   6.5218926  57.3628998  23.6485243
  75.4396200  24.0578294   2.3271497  76.3522434  24.3186641   2.4508902
  75.1246309  24.6176434   1.6174859  34.6965671  62.1146011  -0.1837165
  34.2058325  61.4480257   0.2969952  35.3423190  62.4366713   0.4451783
  13.8590336  67.2442293  21.2493753  13.0799199  67.2722054  20.6940126
  13.5167790  67.2604609  22.1431494  53.0134344  52.9361486  14.9967861
  52.5640631  52.6932049  14.1872966  52.9029799  52.1769333  15.5691755
   0.6176568  28.9493537  19.8986614  -0.1614856  29.1100883  20.4309535
   0.8020688  29.7918773  19.4834745  66.6761112  78.3908796   4.6161646
  67.0074701  78.4172153   5.5137956  66.6991758  79.3025923   4.3254986
  67.5934505  48.4637833  34.4459891  66.8422031  48.2050180  33.9122319
  67.7688980  49.3691730  34.1896439  17.3020760  72.6297762  69.4919437
  17.7010981  73.4569647  69.7617078  16.5917030  72.8869727  68.9041898
   3.5732556  43.8592768  44.8818159   3.8749409  44.7375345  45.1139545
   2.7099515  43.7871790  45.2889347  21.6150442  70.8021142  69.0590864
  21.3133493  71.3823392  68.3601238  22.0450846  71.3847067  69.6850921
   6.5571309  41.4510250  24.6740508   6.7907048  41.6921139  23.7776399
   7.3637868  41.5767193  25.1737952   7.5069078  49.1970707  66.8732707
   7.2526367  49.0112091  67.7771686   7.5481446  48.3373524  66.4544524
   1.6790867  77.8830242   4.1133603   0.8735467  77.7299595   4.6072280
   1.3950349  78.3601952   3.3337140  80.7254314  76.0682154  41.3369370
  81.0833740  75.1842356  41.4186668  79.7767115  75.9469414  41.3752174
  85.7687173  39.9455807  17.5081410  85.6700787  40.8924267  17.4081577
  84.8721966  39.6173165  17.5768913  76.9212961  73.0430555   2.8870231
  76.8272161  73.7027025   2.1998250  77.6064968  73.3889961   3.4589112
  52.6355703   7.9072739  63.9884494  52.1621950   7.7205922  63.1777106
  53.4618338   8.2946707  63.6995856  75.2412748  35.1861119  14.8596549
  75.5145788  34.3007302  14.6195781  74.6637058  35.0625205  15.6128943
  77.0562124  62.0009089  31.3472319  76.4319134  62.5795507  30.9094477
  77.8505611  62.0601463  30.8164454  79.8313012  81.8866374  36.6759024
  79.6166292  80.9832313  36.4435087  79.1016164  82.1724012  37.2255669
  68.9473629  68.0878210  51.2830877  68.1520128  67.6335764  51.0050344
  68.6821795  69.0033960  51.3704109  81.1571789  49.7277689   3.3044332
  80.8194637  50.5253220   2.8968877  81.0213661  49.8620939   4.2423803
  31.3436167   1.3563108   7.5765347  30.6016772   1.8788194   7.8810644
  32.1009009   1.9325589   7.6799864  52.1201754  43.5110044   8.0107617
  52.6660728  43.6091185   7.2306323  51.2229252  43.5156441   7.6773679
   5.5880261  66.7667484  22.6637554   6.0080910  66.8726873  23.5173082
   5.3535748  67.6565552  22.4001026  37.8443678  26.7566945  46.0900317
  38.3473881  26.0463358  46.4882766  37.5325115  26.3938214  45.2609979
  67.9735136  53.5932398  18.0100417  67.6690578  52.7743959  18.4012294
  67.3494577  54.2514133  18.3159781  52.6769026  27.8855397  51.0654043
  53.1031855  28.4603907  51.7010651  52.1837862  28.4788968  50.4988371
  27.8724487   7.9268147  59.3914769  28.1679972   8.3999945  60.1692830
  28.5421761   8.1079842  58.7320278   2.7207280  51.8014288  16.3114488
   3.5460473  51.3642645  16.5211296   2.3271180  51.9912291  17.1630800
  80.8822441  40.6177425   3.1452551  80.7048893  40.1011181   3.9313066
  81.3005924  40.0021410   2.5433838   0.5366135  59.1648293  37.4528265
   0.7022763  59.4647551  38.3466029   0.8121682  59.8959732  36.8998957
  53.6362123   4.0418237   6.8909305  53.5152149   3.7605163   7.7978253
  52.7638340   3.9785317   6.5021080   9.0969412   6.9846772  46.9577932
   9.9429791   6.7297315  46.5897512   9.3187087   7.5100755  47.7265644
  19.8471356  46.3797665  10.8395064  20.0101567  45.4368162  10.8619380
  19.6067811  46.5597200   9.9306178  30.1109290  59.9124193  27.5468135
  30.0626183  59.6287107  28.4597254  29.8505354  59.1417122  27.0423913
  45.1562643  79.9536228  55.0260210  45.2190018  80.9080029  55.0640965
  45.8187675  79.6954203  54.3852043  14.0017129  35.3068328  45.2564621
  13.2398034  34.9027467  44.8411989  14.5697976  35.5531931  44.5265245
  18.2951379  52.4157619   0.8666945  18.4900653  51.7922258   1.5662928
  17.7122593  51.9385958   0.2761074  66.9170904  65.1206779  16.0715580
  67.2680855  64.9914455  16.9526565  66.7785740  66.0654688  16.0051143
  76.1798191  43.9470720  18.8054955  76.8878508  44.3289280  18.2867396
  76.1801577  43.0203819  18.5657609  71.3126802  44.3103981   1.2341088
  71.4711761  45.1301718   1.7021666  70.6613350  43.8530350   1.7659003
  69.8632622  62.0087147  34.3239903  70.3803349  61.6915321  33.5835409
  69.3305635  62.7152634  33.9589548  11.2096215  49.1587210   7.9231387
  11.8578149  49.6969175   7.4687988  10.3688145  49.5600605   7.7035987
  85.1365089  68.9006186  20.3515077  84.4651222  69.4658327  20.7336044
  85.0026321  68.9747381  19.4066203  83.8525677  62.5243187  31.2906289
  84.7870827  62.3450708  31.3944817  83.6122417  63.0082035  32.0807743
  42.9281044  60.3943253   8.0795258  43.1068134  60.4593420   7.1414071
  42.3253202  59.6548986   8.1578338  29.1637492  36.1618614  36.1333346
  29.5749211  36.8007684  35.5511260  28.9689279  35.4138827  35.5687046
  72.5323065  16.6198660  57.1079837  72.8152903  17.2356678  56.4320122
  72.6383932  15.7576348  56.7060719  36.2537249  17.7913834  66.9465823
  36.7109068  17.9528023  66.1212586  36.0776766  16.8505217  66.9428258
  63.3639288   6.0756516  11.1140192  64.2785883   5.9373218  10.8680546
  63.1700039   6.9669145  10.8237183  68.3261395  71.6230726  28.8263154
  68.5452414  71.0760212  28.0720186  67.9415083  72.4127150  28.4458447
  79.8313761  71.3080788   3.3774197  79.6978807  70.8174515   4.1884038
  79.2479753  72.0629311   3.4553596  78.5432482  46.7570257  27.6163936
  78.9568567  47.1538401  28.3830094  77.9080772  47.4098587  27.3221111
  12.3248482  26.7826033   0.1019070  13.2641030  26.7603636  -0.0812530
  12.2641850  27.0954490   1.0045026  58.9497240  14.8401524  60.4050349
  59.5179804  14.7729660  59.6376954  58.1770762  14.3232466  60.1768862
  50.0812912  63.4894991  41.2852955  49.6105099  63.1090975  40.5437469
  49.5863485  64.2791939  41.5035820  83.7284184  61.4680433  28.8889575
  83.7833881  61.9234514  29.7290850  82.8081036  61.5417576  28.6363244
   3.8147164  37.8347468   3.7889546   4.4239998  37.8163099   3.0509394
   3.5072899  38.7405896   3.8231730  54.5850706  43.1221819  23.0031729
  55.4339457  43.2115650  23.4363627  54.4681311  43.9475822  22.5327778
   0.6228638  26.4441109  32.4800706   1.5473939  26.2476134  32.3288608
   0.1551438  25.8932757  31.8523335  65.1493359  67.8806257  38.4665537
  64.5431185  68.3318329  37.8790641  64.6720266  67.1010447  38.7505674
  49.8957157  50.7463980   4.0463611  50.3333473  51.5514278   3.7695339
  49.0358067  51.0344124   4.3526849  40.7219131  38.2445027  63.0301450
  40.8834036  38.6292674  63.8916026  39.8229225  37.9192616  63.0778049
  66.6187477  67.5314903   1.5398887  66.4067602  67.5856447   0.6080307
  67.5748014  67.5669241   1.5704791  84.5704556  46.0150146   6.5772557
  84.7585297  46.3528490   5.7016242  84.3111992  46.7865133   7.0810521
  83.2352161  59.4797993  37.7739286  82.5228596  59.4084024  38.4092855
  83.6814785  58.6341619  37.8184080  61.0335056   7.5300263  30.9222293
  60.4912416   7.8345250  31.6498709  60.7241528   8.0304765  30.1671910
  28.6405571  39.9059845  64.9495022  28.0569799  40.6611039  64.8755352
  28.0691536  39.1484429  64.8235737  60.9907484  57.5368690  14.2875910
  60.5591202  56.7467976  14.6127248  60.3593445  57.9219103  13.6798871
  74.1576242  50.5257511  12.8603232  75.0859118  50.6837893  13.0322075
  73.7161255  50.7907820  13.6672103  24.5996993   1.5665196  34.1061902
  24.3091338   0.8035325  33.6065459  25.5142062   1.3797521  34.3184066
  82.8108883  61.3625383  23.8514996  83.2249260  60.9889126  24.6294522
  82.4849224  62.2151136  24.1397500  60.5304146  62.3241091  27.3308182
  59.6295357  62.3691702  27.0104694  60.6628942  61.4003992  27.5439954
  28.8790432  74.0355089  64.6144353  29.1850105  73.6592176  65.4396747
  29.5925728  74.6082475  64.3332283  59.8103380  64.1274118  11.2240970
  59.3242931  63.6660528  11.9075763  60.5385399  64.5422554  11.6865385
  61.6996725  18.4700657  69.7806358  61.2373693  17.6326014  69.8147731
  61.2271841  19.0297676  70.3968527   1.3193417  68.9845800  14.0790498
   0.9907818  68.2583284  13.5491049   2.2701169  68.9458084  13.9753342
  29.8410266   3.2901620  40.3991890  29.3632643   2.4800538  40.5772495
  29.1805117   3.8844251  40.0430965   9.1573756  11.1615800  45.7725620
   9.3040459  11.3316869  46.7030382  10.0332539  11.0170793  45.4145288
  41.3953360  21.2356020  69.0132885  40.4556377  21.0542990  69.0313736
  41.7195709  20.9030844  69.8502679  77.0189571  66.3516188  36.5375543
  77.4702311  65.5732203  36.2109351  77.6330471  67.0686007  36.3792253
  69.3525457   7.4730760   0.5334686  68.8622808   7.0426822  -0.1669828
  69.5635986   8.3378994   0.1816594  42.7200365  28.9948320   8.9173120
  43.3997202  29.3159366   8.3247280  42.7317524  29.6097040   9.6508145
  38.0200101  55.6255341  38.0509877  38.2390023  56.5573406  38.0488849
  38.8568783  55.1831341  38.1929827   5.5534840  26.0293674  29.8651099
   6.4014912  25.7646394  29.5086908   5.7692815  26.6522312  30.5591583
   3.1404210  81.0795116  39.8872352   2.3189164  80.6500244  39.6487045
   3.0192376  81.9916248  39.6234107   3.1857873  57.3758698  46.2706709
   2.9905320  58.1078053  46.8557978   2.5044919  57.4173737  45.5995846
  12.9668713  76.0891008  10.3494966  12.7538205  76.6689777  11.0806525
  13.5540963  75.4339886  10.7266116   7.0177937  17.9985583  69.6299553
   7.5646783  18.5796440  70.1586199   7.0286084  18.3889210  68.7560368
  64.8702383  39.4053650   7.2660702  64.3246222  39.0741658   6.5527368
  64.6039057  38.8926411   8.0292308  26.4854010  15.6718804  62.3098634
  27.1148594  16.3700415  62.4903707  25.7604940  16.1118723  61.8658499
  20.3040997  73.9732077  48.1873594  20.6731907  73.2972576  48.7557755
  19.4705168  74.2026355  48.5981308  30.4077189  34.9673986  24.4966865
  30.1067011  35.1830148  23.6140013  29.7398513  35.3367566  25.0744009
  76.5373039  69.9018002  58.4768677  76.0081339  69.1144371  58.3492947
  75.9100294  70.6229591  58.4249878  77.4892990   7.2891950   5.9181881
  77.1089975   7.8604650   5.2509159  78.2934515   7.7346849   6.1848533
   8.7143899  32.6863170  17.4085903   8.6274911  31.8703008  17.9013348
   7.8312016  33.0552268  17.3984969  13.8967097  61.2838984   9.2900056
  14.5310473  60.6697607   8.9202976  13.0459726  60.9493256   9.0062058
  10.0029851  52.8318357  25.0188732  10.9585763  52.8675699  25.0614357
   9.8153210  52.4623299  24.1560411   7.9600907  71.8148613  36.1201096
   7.2075368  71.4132166  36.5543556   7.8537465  72.7533007  36.2758470
  58.6632395  71.5424204  15.1950955  57.8041553  71.9631577  15.1605415
  58.9985037  71.7536354  16.0664260   1.6238921  14.0112256  24.3019748
   2.2751038  13.5979127  24.8688340   2.0289176  14.8359250  24.0335417
  53.1608527   2.5979375  40.7189751  52.6724761   2.7043008  41.5353107
  54.0444605   2.3579549  40.9980249  41.7149981   3.2452895  58.0409525
  41.4759357   2.9064394  58.9036582  41.9082172   4.1705109  58.1921552
   6.7021371  43.6273861  34.6686554   6.5599156  42.6832438  34.7364473
   6.9885064  43.7622118  33.7653017  42.7701481  50.4557778  70.4156643
  43.1743105  50.0424839  71.1786003  43.4650143  50.9963013  70.0398730
  70.5587387  49.0460300  22.1566391  71.3830805  49.3561602  21.7817926
  70.0177050  49.8323393  22.2289801  70.7417162  22.2029282  60.6904708
  69.8180254  22.4496342  60.7369755  70.8008249  21.6405274  59.9181758
  52.9061651  68.7367010  45.1647472  52.3907280  69.4477367  45.5455208
  52.6084185  67.9519796  45.6249523  80.6238270  52.8514719  16.5453553
  81.2328053  52.7641296  17.2786701  81.1718369  53.1268120  15.8104312
  11.1668873  37.6057458  18.1174254  11.2565327  36.7494655  17.6991224
  10.2578450  37.6324487  18.4160352  11.7514229  46.4647484   8.5546279
  11.4151669  47.3514843   8.4247744  11.0602093  46.0152912   9.0408778
  62.1074295  71.6846657  12.8724504  62.1224165  72.5814056  12.5379908
  61.7309237  71.1692476  12.1591306  73.9219666  58.7153149   2.8311071
  74.3638039  58.8135672   1.9876862  73.2089424  58.1006670   2.6578018
  35.2892542  66.6310596  15.5350208  35.3181171  66.6600466  16.4913464
  34.9066472  67.4710035  15.2813745   2.4125481  76.3160610  51.9813347
   2.0004941  77.1377659  51.7144299   3.2758904  76.5747261  52.3037720
  86.3387299  32.4387288  37.2547936  86.5036392  32.2607112  36.3288641
  86.5300083  31.6108894  37.6956201  11.1251546  76.8640089  32.3556733
  12.0102788  76.6623545  32.0521474  11.2516404  77.5098753  33.0507231
   0.1404763  49.8914576   3.4275362   0.4178143  50.5146027   2.7559698
  -0.2153015  50.4374599   4.1286275  14.1514866  10.1201963  16.3094056
  13.7512963  10.9471273  16.0405779  13.5900014   9.4465207  15.9258294
  55.4257934   2.2944593  42.2839975  56.0341422   1.5896463  42.5062227
  54.7604053   2.2621392  42.9713440  73.7606192  54.4216728  51.3629150
  72.8555679  54.1993332  51.1445522  74.0091133  53.7840223  52.0321560
  59.8244619  62.8858995  14.0562665  59.0133572  63.2168102  14.4420683
  60.5070972  63.4585190  14.4060493  84.0012741  80.9047794  21.6660738
  83.6124516  81.4126396  22.3782015  83.3255482  80.2700710  21.4278388
  58.5271549  74.6913338  50.9355068  58.1626606  75.2604342  50.2576447
  58.7370825  75.2832985  51.6578245  81.4587498  12.5332010  20.5215645
  81.2375546  13.4398627  20.7343245  82.3357010  12.4090981  20.8845925
  14.2881266  72.4532630  70.4713070  14.1099707  71.6409805  69.9972946
  14.3594233  72.1852496  71.3874496  16.1248318  67.7364352  63.0065690
  17.0721785  67.7260282  63.1431620  15.7634083  67.3527958  63.8055847
  64.5712812  36.5775681  11.6365981  64.8241551  35.8997537  12.2633779
  63.7444652  36.9207240  11.9754970  31.1987551  77.8184460  12.0721912
  32.1290167  77.8854985  12.2874844  30.9677275  78.6843298  11.7358828
  17.7620426  74.4137528  25.1554142  18.5905424  74.7938635  25.4475246
  17.1016327  74.8171022  25.7187973  78.1905993  64.1888691  35.5017877
  78.7151487  63.4278465  35.2529311  77.4118670  64.1345061  34.9478531
  77.9303565  48.0967041  57.6047574  77.8408780  47.1471836  57.6862179
  77.1527925  48.3696535  57.1178065  81.8987172   6.2929952  13.3643186
  82.3787230   7.1052784  13.5256350  81.8919312   5.8466095  14.2110336
  50.7262340  43.9658102  70.4180206  50.6607023  44.2222007  71.3379127
  50.0941029  43.2534304  70.3223173  26.4522934  13.4749341  16.1319554
  25.6197834  13.9363110  16.0305083  26.2198186  12.6539195  16.5656865
  18.6515346  72.0572116  52.6162480  18.7761417  71.7542555  53.5156487
  18.5258105  73.0026581  52.6972292  16.9285496  78.9995564   7.8159553
  16.8967588  78.0641604   7.6153177  16.0116489  79.2530606   7.9220366
  61.0122919  22.8435731  19.0138566  61.2937975  22.1463799  19.6062338
  60.5954647  22.3845172  18.2846391   1.4890448  65.7193997  64.0565483
   2.4317137  65.7531502  64.2192386   1.3678900  64.9425962  63.5105370
  27.4344881  72.3770166   4.1235963  27.7518137  71.7418159   4.7655103
  27.1056231  71.8429358   3.4005216  62.0308542  12.1548998   9.3557370
  62.4809170  11.6294611  10.0172412  61.6164589  12.8608596   9.8518515
  22.2562424  79.3569853  66.4401747  21.6575590  79.6261051  65.7434796
  23.1165520  79.3341734  66.0211523  57.8970671  43.8203192  21.0121155
  58.4575701  43.0520487  20.9033704  57.7531004  43.8800192  21.9565415
  34.7406197  27.6402521  24.6610618  35.4288006  27.5896573  23.9976788
  35.1852560  27.4352121  25.4835510   2.4740012   1.8426634  67.5048970
   2.5672396   2.4360062  66.7595883   2.8601773   1.0195710  67.2055431
  85.5405712   0.3549779  15.7643855  86.4419842   0.5512997  15.5091667
  85.1652908   1.2057158  15.9916437   4.1365210  79.1566207  66.8329002
   3.5240809  79.7842934  67.2165339   3.9973608  78.3511546  67.3309876
  44.1703272  13.8548470   8.4362942  44.1579771  13.9140487   9.3915820
  44.7635317  13.1273317   8.2490569  58.7703290  47.7389117  69.9253897
  58.1430235  47.0174506  69.9724386  58.3186427  48.4762003  70.3360193
  43.1875181  24.3460703  21.1099958  42.9473782  24.7502160  21.9438004
  42.7066469  23.5185170  21.0976601  63.5152578  23.0971742   7.8392392
  63.7710667  23.8421607   7.2953749  63.8401175  23.3155704   8.7127388
  10.9836514   4.9771048  55.1580964  11.4287861   5.2209927  55.9696422
  11.4446838   4.1937090  54.8581467  83.8098779  67.3915698  44.8666607
  84.5077339  66.8082168  45.1648627  83.1354490  67.3232272  45.5424653
  12.0042570  38.8578893  36.5266466  11.4338549  39.4396306  37.0290875
  12.8376062  39.3259097  36.4745259  70.3059020  71.9122245  46.5456496
  70.5098501  72.6402857  45.9586535  70.2836814  71.1437728  45.9753691
  35.4367979  70.9486628  12.4093735  34.7487505  70.9721411  13.0744088
  35.1448257  71.5682162  11.7406905  32.8806663  28.1468248   2.4974976
  31.9544673  27.9626656   2.6539347  32.8784752  28.8749480   1.8761569
  68.4283693  53.1773807   7.9912585  67.9791410  52.3681999   7.7470320
  68.5241468  53.1205965   8.9419609  32.0547676   3.5597116  28.2652974
  32.5514460   4.3778211  28.2808065  31.3862276   3.6980712  27.5943708
   3.1672970  37.4325880  60.5970941   2.2325579  37.4915414  60.3995727
   3.2067553  36.9653996  61.4316063   4.8901685  71.3070644  27.0260811
   4.6502622  71.2273539  27.9492950   4.0582617  71.4464594  26.5736079
  47.1177912  34.6633959  14.1289914  46.6378641  35.2180171  13.5139322
  47.1406078  33.8036990  13.7087107  13.7716126   3.4451973  16.7880762
  13.0263829   3.7516293  17.3047602  13.4200180   3.3306387  15.9051883
  62.5836182  28.0167580  23.8298368  62.6980209  28.4358168  22.9768825
  62.2574663  28.7147880  24.3978214  74.8242474  12.3448539   3.6306894
  73.9348269  12.2337306   3.9665604  75.1801968  11.4569390   3.5969201
   5.7866479  13.1168890  14.7671676   6.5440846  12.6826870  15.1595807
   6.1621380  13.7210870  14.1267097  77.1605363  33.5073151  52.1208976
  77.0415321  34.0904095  52.8706120  77.7286973  33.9958765  51.5253030
  55.3633738   0.7931699   9.7884911  54.8738432   0.1267998   9.3062633
  56.2775230   0.6373211   9.5512784  13.9643765  23.4969711  17.4040151
  13.2759286  23.5273600  18.0683553  13.8794232  22.6285005  17.0106065
  84.1877270  33.6714339  21.9529152  83.3667183  33.4288549  22.3810816
  84.3219948  34.5879459  22.1941805  12.4609152  29.9724617  63.3505903
  12.7673260  30.0059774  64.2568032  12.7691523  29.1268923  63.0246536
  73.6792245  65.0829389  55.0324689  73.6450067  65.0040700  55.9857999
  74.3811479  64.4883087  54.7679852  61.4383459  27.3001242   8.9316642
  60.5301380  27.3658490   8.6365932  61.8598270  28.0872512   8.5866696
  52.5830784  40.0663117  55.4307960  52.2088256  39.2187717  55.1902912
  53.2462731  40.2339602  54.7612451  21.9169529  78.1436906  42.6208496
  22.7786882  77.7521653  42.4781942  21.8966158  78.3434949  43.5567427
  22.8114581   5.8686441  18.5718489  23.4381199   5.2608699  18.1792486
  22.7110529   5.5605286  19.4725239  72.0573821  74.1679337  53.2050441
  71.5349403  74.9557426  53.0545650  72.1639219  73.7815406  52.3358022
  55.7055529  73.4550090  33.0088139  55.0337847  73.3530373  33.6830211
  55.2340181  73.8016594  32.2513700  68.7426805  19.0894103  22.2224236
  69.3698978  18.7705541  22.8713918  68.9089918  20.0306416  22.1708703
  56.5951061  13.6904311  28.4413528  56.0397339  13.6890638  27.6617455
  57.2820616  13.0527663  28.2471728  72.4221468  41.3439608  13.8125026
  71.4886570  41.3370705  14.0241158  72.6591539  40.4190636  13.7445080
  17.8543627   7.0374364   1.3675548  18.2536340   6.7153800   0.5594126
  18.5351312   7.5738490   1.7738162   2.2709084  10.8586025  41.6472530
   2.4219037  11.8037450  41.6354656   2.4756337  10.5945110  42.5442314
  32.6285942  81.4105915   0.2100717  33.0672510  82.2374362   0.4104172
  31.9624765  81.3215536   0.8916817  38.8018282  72.3300774  18.3772576
  39.0927227  72.1993179  17.4747539  38.5081776  73.2407088  18.4046996
  47.7568014   6.7062546  46.4623223  47.8181847   5.9427430  45.8882914
  48.3206757   6.4928938  47.2057949   1.1214908   4.2978503  70.7361887
   0.2141436   4.0538050  70.5534425   1.5891178   3.4639431  70.7825554
  65.9277296  56.3036489  15.9125245  65.3600359  55.7743120  15.3523850
  65.4533625  57.1275282  16.0240114  61.3809299  19.1956258  16.0589278
  62.2090101  19.3834758  15.6170774  61.4205456  18.2593477  16.2539840
   0.9580914  21.8994846  55.5904458   0.0871054  22.1773686  55.8739899
   0.8679691  20.9610524  55.4247521  30.2710493   6.9511534  64.9010830
  30.2049072   7.7684094  65.3949945  31.1825235   6.6793705  65.0086741
  22.5172162  22.2320056  24.0848351  22.0020318  21.4940166  23.7589645
  22.3890567  22.2133470  25.0332332  75.8183065  76.0928824  67.4460538
  75.7670274  75.1571586  67.6410530  76.5996089  76.1813190  66.9001768
  49.5909309  32.8429675   2.0030591  49.5663834  31.9303942   2.2908752
  50.4503107  32.9418325   1.5932706  77.4200058  41.4412403   0.1739669
  78.2634115  41.6882229   0.5533063  77.1112490  40.7216930   0.7245573
  12.1587284  80.2849991  43.8107395  11.2056406  80.3736668  43.8094378
  12.4600227  80.9471317  44.4328594  14.5679188  34.0067196   5.0751346
  13.7948334  33.4438133   5.0338268  14.3797576  34.7174025   4.4621429
  60.0833607  40.1044893   5.6476909  60.0395918  39.5818663   6.4484286
  59.7806215  40.9732771   5.9118676  51.5558720  27.6411486  20.4925728
  51.9013214  27.9604077  19.6589231  51.1920595  26.7799759  20.2870250
  77.3243776  50.1553770  63.5414152  76.9407001  50.4121872  62.7029209
  77.9215970  50.8705785  63.7606083  15.3946646   1.0149409  61.2450521
  15.2740438   0.9004427  60.3024112  16.2715300   0.6721093  61.4177041
  77.9581356  15.4999328  21.2988138  78.9142227  15.4540944  21.3038182
  77.7095556  15.2203870  20.4177403  31.8243940  79.9202141  10.0815880
  31.1887415  80.1440152   9.4018173  32.1884115  80.7620207  10.3556073
  64.7091117  42.3680944  50.0473724  64.6984806  41.4139041  49.9722753
  63.9664498  42.5718976  50.6158338  -0.1839106  70.6219424  16.0627794
   0.4922278  71.1742903  16.4551854   0.2423580  70.2245344  15.3034413
  49.3846512  41.2911892  17.9262650  49.1560841  40.4838324  18.3868814
  48.5743809  41.5562248  17.4910104  41.4458227   7.8706849  29.9007726
  41.1849403   8.0037069  28.9894700  42.0748949   7.1500146  29.8670626
  25.8114386  51.9794035  11.3685942  25.7448316  52.6173210  12.0791256
  25.1966286  52.2940207  10.7058322  16.8628109  34.7552228  13.7121296
  16.2529361  34.3160200  13.1193519  16.6601789  34.3939281  14.5750535
  43.2040024   0.0857529  12.3866045  43.7492371  -0.5806730  12.8047299
  42.9003954   0.6348926  13.1094456  43.5226973  48.4516765   0.9715837
  43.9940842  49.1788889   0.5651482  44.2099674  47.8457428   1.2485944
  79.6317251  57.8227879  14.9278069  79.5020206  58.1653930  14.0434825
  78.8047702  57.3903418  15.1408088  42.6373053  23.5994339  14.5514047
  42.7498484  24.1087508  15.3540015  42.1449327  24.1771007  13.9682198
  59.6511936  40.2614927  23.3779907  60.3388834  39.7147942  22.9979372
  60.0699902  41.1108828  23.5171819  17.1699369  41.6011953  31.2933803
  16.6727364  40.9017897  31.7174697  17.9708612  41.6743422  31.8124175
  73.8553476  31.6449189   5.4009140  73.0576372  31.7591929   4.8843563
  73.8619089  30.7153034   5.6289548  14.8114777  39.9779296   7.9896814
  14.9922276  40.9081173   7.8543556  15.6749821  39.5795035   8.0985463
  33.8544607  53.7466526   1.2933235  33.9535928  54.2909384   2.0744503
  33.6590171  54.3678427   0.5917851  50.5506809  23.3751751  64.1089265
  49.6416195  23.5149695  63.8437764  50.5204018  22.5988795  64.6681051
  49.8253202   0.9622650   3.9355248  49.9787474   0.1001133   3.5490191
  50.6452036   1.4363344   3.7966725  26.3001783  77.1014378  31.6062069
  27.0714767  77.6249782  31.3888764  26.4941700  76.2321652  31.2555456
  67.1748161  23.3498859   7.9054719  66.6217089  23.8811517   8.4782374
  67.0764589  23.7482786   7.0406938  60.9730234  62.6621749  56.9567154
  61.2669888  63.5674407  57.0582484  60.1015392  62.6475432  57.3523591
  40.4905518   3.1297804  60.9572165  40.2037485   3.9135434  60.4885040
  39.6859558   2.7605368  61.3212381  74.1070857  49.9144854  60.3871666
  73.5396448  50.6832274  60.4444180  74.9820629  50.2731606  60.2388428
  42.1623611  40.5291176   7.9962045  42.9577971  41.0614300   7.9836446
  41.5871239  40.9727192   8.6195391  15.1280499   6.3018435   3.5647804
  15.2983582   6.5472174   4.4741860  14.4834208   6.9408947   3.2609752
   6.8341461  51.6872539  69.5578387   7.5489298  51.6644742  70.1940747
   6.1643473  51.1132111  69.9294320  34.0234295  73.3637335  63.2884209
  34.6798435  72.6688936  63.3388917  33.9635006  73.5693028  62.3554782
  17.0263918  65.0112308  40.4952478  17.0139988  64.6669722  39.6021819
  17.9342278  64.9061180  40.7798815  60.5368328  48.7756157  20.7598853
  60.2062654  47.8909397  20.6039786  61.3088131  48.6490965  21.3114905
   6.4405170  74.5372536  67.7193253   6.5023914  74.5189645  66.7643027
   7.3460928  74.6263268  68.0163504  10.7178498  15.5849969  26.0502839
  11.2174130  16.1599255  25.4705191  10.7167817  14.7378314  25.6047034
  51.0864449  13.3511949  23.9379621  50.4358101  13.6544836  24.5711493
  51.6730690  14.0984333  23.8207579  32.7160954   7.3730570  17.2709787
  31.8609762   7.7749676  17.4241912  32.5136471   6.4953232  16.9472039
   0.8062077  36.7987132  11.7447996   0.3379441  35.9642458  11.7197669
   1.2551308  36.8468571  10.9007728  16.1023823  29.3903198  60.8485959
  16.5694967  29.1810467  60.0397454  15.2050272  29.5691731  60.5675338
  26.4178577  64.6953227  68.9287490  25.8328739  65.4285147  68.7378277
  27.1949688  65.1023772  69.3116821  18.6951653  42.4606916  66.6759600
  18.4805885  43.1750374  66.0760440  17.8701416  41.9894180  66.7920382
  81.1642137  63.6877396  56.9058607  80.8910241  64.5276620  56.5369020
  81.0152974  63.0569341  56.2014876  61.5850687  16.6490066   3.7310416
  61.7356062  15.9855938   3.0576527  60.6452942  16.8255341   3.6874986
  77.5911140  54.9947643  43.7962055  77.3397970  54.4687176  43.0370331
  76.8702316  55.6146145  43.9073277   2.9875341  75.3189065  69.1736369
   2.8320995  74.7609022  69.9356761   2.1428362  75.7370474  69.0066756
  11.1201955  19.9241579  30.5226231  11.2346364  20.7819223  30.1135063
  11.3192177  20.0713420  31.4472628   7.5311056  58.4346320  41.6690241
   7.2673431  58.1350877  40.7990061   7.4875275  57.6501968  42.2158275
  19.8484102  59.5784726  65.9228431  19.0340868  59.3566062  65.4713075
  19.8819462  58.9761784  66.6660450   3.7641717   7.9930824   9.7077036
   3.0970956   7.9318845   9.0239674   3.3919526   8.5948998  10.3522956
  22.7973564  13.0522419  58.7134121  23.5155733  12.4311234  58.8342546
  22.8096064  13.2534672  57.7776824  81.9834772  32.4290302  58.4517990
  81.3847700  32.7132835  57.7611624  81.5056386  32.5919332  59.2650412
   5.3005615  81.3307598  36.7928968   5.6951967  81.0482719  37.6179396
   5.1203409  80.5168130  36.3225351  52.1278286   9.8043674  12.4555779
  51.6478395  10.6138623  12.2807646  52.3172426   9.8359728  13.3933187
  56.4619017  22.0614123  33.8869286  56.5959311  22.4658346  34.7440815
  57.3060274  21.6626120  33.6756325  35.7319427  18.1253994  28.9552832
  35.9772778  18.0770791  29.8792458  35.0561285  18.8024521  28.9220095
  20.8046889  45.4425859   5.3499389  21.1396718  44.8470259   6.0202563
  21.5672565  45.9557724   5.0827909  78.4094048  41.3411903  14.3801665
  79.1547346  41.8961048  14.6099043  78.4349823  40.6290865  15.0192976
  24.6741255  70.3255702  26.1317468  24.7021492  71.2626100  25.9383440
  23.7415369  70.1253129  26.2117767  38.9375019  17.9984498  31.8473530
  39.4618464  18.6907518  32.2498631  38.8935781  18.2386684  30.9218264
  65.2444410   4.2467993  30.9989452  64.8177576   3.3920032  31.0580611
  64.5251894   4.8651293  30.8702111  65.9074497  36.4213634  14.8272550
  66.4142132  36.5914297  15.6212974  64.9944544  36.4746499  15.1097953
  65.1004791  10.4764009  24.8151350  65.1185942  10.4500568  25.7718015
  65.5891371  11.2675142  24.5880222  69.8967886  16.6939175  47.9615259
  70.7710981  16.4198256  48.2384586  69.5523739  15.9431028  47.4779129
  11.6230019  81.6511689  18.7685251  10.8768757  81.0602229  18.8700509
  12.2318275  81.1736182  18.2050419  76.9152737   4.6622619   6.5278357
  77.2794724   5.5344272   6.3764536  77.6543140   4.0681243   6.3972700
   0.6776968  57.1480300  60.9069966   1.6208378  57.0349517  61.0250316
   0.4632345  56.5992715  60.1526080  74.5184389  71.0266735  67.3822002
  73.6470714  70.8634188  67.0212288  74.7094884  70.2496674  67.9075514
  76.6501203  67.9191806  55.7521723  76.1206785  67.8597715  56.5474020
  77.3106494  68.5821559  55.9531699  57.1673735   0.3522850  43.1812630
  57.6361616  -0.4342102  42.9021750  57.8268393   0.8749510  43.6375151
  83.7029648  26.5152383  18.6709261  84.2312908  26.0995150  19.3523049
  82.8540993  26.6681814  19.0859699  81.4143100  63.3958366  52.2571097
  81.3004413  63.2216194  51.3228105  80.5229822  63.4345677  52.6039015
  75.6077543  58.9884474  53.0876194  74.7191158  59.3386938  53.1499396
  75.5886283  58.4226944  52.3157464  84.1255489  65.0661852  68.5627331
  83.6023393  65.1654675  69.3581124  85.0178781  65.2806833  68.8347018
  56.6740473  53.1395818  39.0866685  57.2876604  52.7637745  38.4554148
  57.1095427  53.9316441  39.4016409  46.9338043   1.5746666  41.7970191
  46.4652546   1.2675120  41.0209094  46.2965258   2.1160199  42.2629009
  26.0548321  24.2428615  61.7081992  26.7410103  24.6405210  62.2441725
  25.3044144  24.1668870  62.2975413  53.9290714  22.9360437  20.8271742
  53.0596590  23.1178737  21.1839509  54.4595051  22.7114248  21.5916467
  38.9765270  24.0562321  46.5797768  39.0539129  24.3502404  47.4874125
  39.8524387  23.7431885  46.3539086  53.7868252  11.0447123  64.5851104
  54.6102968  11.5280988  64.5182721  53.5168472  10.9048536  63.6774854
   6.7500511  71.6796067  66.1070342   7.5151840  72.2074368  65.8785529
   6.3161388  71.5121152  65.2704357  65.6526144  49.0076924   0.4404255
  65.7916601  49.8346353  -0.0211610  65.9080465  49.1920353   1.3443077
  59.3589067   2.9929551  22.5694513  59.4296789   3.3389360  21.6797781
  59.9186850   2.2165005  22.5697207  72.0313025  42.6850414  16.9036555
  72.9795837  42.6097679  16.7972195  71.7923689  41.9403267  17.4555099
  33.8480830  23.4238243  15.7654977  33.1652951  23.3790851  16.4348483
  33.5833406  24.1504955  15.2014995  78.5803380  45.4224812  57.8615700
  78.2750383  44.6276035  57.4243162  78.8289371  45.1325943  58.7392925
  34.2581097  69.6401503  63.9124827  34.7207180  68.9459684  64.3818752
  34.9105946  70.3320958  63.8043140  66.9723940  12.4801624   2.5843695
  67.5565481  12.5209081   3.3415610  66.0998487  12.3656344   2.9608998
  72.1403599  39.9837303   6.1570901  72.3270750  39.5346236   5.3326678
  71.3124514  40.4378414   6.0002959   5.5462678  82.1100000  33.7738013
   5.8948620  81.3914585  34.3014503   5.1489099  81.6801489  33.0164599
  30.2300556  13.2705189  43.1537472  29.3198832  13.2209994  43.4459244
  30.6604774  13.8256432  43.8039814  29.3224199   6.0662056  43.0403934
  28.4895380   6.0416390  42.5692974  29.1707333   6.6747595  43.7634979
  58.9179611  18.6253691  48.2680321  58.2599449  18.7671185  48.9485836
  59.6642494  18.2456505  48.7318230  77.7597952  15.5652344  11.6625416
  77.6290274  14.9813867  10.9153771  78.7069368  15.6986380  11.6993737
  51.6151102  59.3953634  27.0727634  50.9572561  59.4602896  26.3804865
  51.5742357  60.2396298  27.5219536  49.7381783   6.7358696  55.0123644
  50.0608921   7.0287597  54.1601324  50.1435137   5.8781874  55.1401043
  83.9311440  10.8040072  39.4932423  84.7294671  10.3533245  39.7685586
  83.5608466  11.1522461  40.3043161  46.0713530  27.9558396  10.2570927
  46.6955566  27.2546339  10.4439545  46.0370350  27.9975653   9.3014181
   5.8926958  18.2667112  43.2295561   5.6718737  17.5038147  43.7638426
   6.4111453  17.9115188  42.5075626   5.1916805  57.8296747  70.6349622
   5.8762089  58.3532693  70.2184285   5.6580940  57.0866575  71.0178682
  41.5117455   2.0440298   5.9491903  41.1862326   2.1126981   6.8467200
  40.8025599   1.6162784   5.4692775   2.6275173  68.8485386  64.5097552
   2.4364582  68.4994318  65.3803031   3.3217350  68.2827451  64.1718684
  59.5186186   8.2978684   7.0020097  59.3437767   9.0182453   6.3964355
  59.8345280   7.5872016   6.4439923  32.7840734  36.4628291  14.1751111
  32.8407145  36.4504218  13.2196689  32.0599008  37.0594716  14.3643832
  18.0292765  54.4639995  65.3834991  18.4940783  53.6334779  65.4855989
  18.0905405  54.6593811  64.4484566  84.5658119   3.6708476  64.3906747
  84.9897868   4.3595435  63.8786481  83.6845214   3.6068560  64.0226172
   9.7653301  79.9451282  19.8670101  10.1768573  79.1687898  20.2467132
   8.8652738  79.9222738  20.1919866  84.5648670  21.6594934  21.3228393
  85.0634670  22.4348402  21.5806580  85.1815891  20.9342098  21.4221168
  80.4517078  24.0285540  23.5327697  81.2390137  23.5354137  23.7634325
  80.4070663  23.9756227  22.5780773  68.1908035  63.6427307   4.6128410
  68.0188704  63.1009150   3.8427040  67.5371504  64.3404007   4.5656258
  63.0742064  53.8899031  50.9037910  63.4760347  54.0508749  50.0500618
  62.1380296  54.0252652  50.7572208  38.1420906   5.8483244  41.6698252
  37.6491745   6.3768603  41.0421978  39.0597160   6.0102822  41.4508305
  24.2512949  48.4120251  63.9009933  24.8457201  48.9521767  64.4217013
  24.5274790  47.5128342  64.0781949  83.4241104  23.1960797   3.7700859
  84.2680645  23.1915784   4.2216992  82.7916622  22.9409981   4.4417819
  42.5854969  17.0049214  33.3472514  41.7029572  17.1356654  33.0004716
  42.9983854  16.4010620  32.7299118   8.4098054  36.6779447   2.5435314
   8.9984990  37.4112296   2.3647529   8.9216138  35.9002090   2.3212489
  53.6204720  27.7462077   0.7177568  54.2039156  27.9461884   1.4497632
  54.0951538  28.0487609  -0.0564356  28.9110716  17.3971392  62.9778777
  29.5876606  17.1825291  63.6200659  28.7432392  18.3302714  63.1095360
  11.4108816  61.3353898  66.0861252  11.7065064  62.0688155  66.6255005
  11.7031876  60.5566456  66.5597771  68.2492495  14.3845618  30.8832884
  68.9557266  14.8355579  30.4209828  67.4749899  14.5324218  30.3402472
  56.2129831  14.1156912  17.3648107  55.9226322  14.0243495  16.4572942
  56.8700361  14.8112106  17.3372138  36.8353009  27.0569181  22.6149988
  36.3746524  26.2600613  22.3522139  37.7153754  26.7596912  22.8459930
  15.0476933  17.4389803  31.2732840  14.8988152  16.7374873  30.6392694
  14.1767121  17.7986085  31.4415026  52.6426085  38.8971449  66.5834798
  53.3929213  39.0017725  67.1685584  51.8804129  38.9447953  67.1605594
  81.2642002  49.4738531  10.0993598  82.0694828  49.1893387  10.5315614
  81.0427380  48.7545013   9.5079911  72.0298004  44.9629736  14.5852840
  71.3531780  44.3081474  14.7573698  71.6267395  45.5652142  13.9599180
  80.8490372  41.5257835  22.6850438  81.3538551  41.9954252  22.0211029
  81.3774109  40.7532406  22.8856301  52.2434473  43.4689188  10.9019423
  52.6474571  44.2148876  11.3452637  52.1539021  43.7510538   9.9916607
  83.9087501  60.4478493  55.6448148  84.0990701  60.4755738  54.7071372
  82.9542985  60.3945877  55.6940125  14.3276120  24.9168134  14.3289745
  14.5362950  24.0750623  13.9238346  15.0929642  25.1201200  14.8666859
  26.6182240   4.8356081  57.2544692  26.0590513   5.4696204  56.8054877
  26.5703304   5.0852753  58.1772946  30.1687758   1.8403863  10.5340469
  29.2121070   1.8410825  10.5021465  30.4266303   1.1098718   9.9718267
  72.5447273  56.2662601   2.3304839  73.4486008  55.9932327   2.1733321
  72.0949459  56.0929251   1.5035120  37.0403679  69.9956728  10.4922152
  36.3974150  69.8743344   9.7935599  36.5351303  70.3505207  11.2236881
  41.1042984  80.8281776  19.1134799  41.1477335  80.0141583  19.6151948
  41.7439468  81.4030009  19.5337903  57.4455118  39.7923255   9.4368303
  58.2853508  40.2503347   9.4704270  57.6727152  38.8678432   9.5365673
  55.9068775  23.0817914  40.5120850  55.2998066  22.5366926  40.0115204
  56.7639303  22.9033685  40.1249743  77.6573148  65.2805498  56.7759965
  77.2476974  65.7541993  56.0520480  77.7829709  64.3928172  56.4407717
  57.3888063  11.6526222  24.7859335  57.6529121  12.0198548  25.6295085
  58.0099297  10.9413457  24.6293378  65.7881983  75.5429972  30.1028776
  66.6548307  75.8834387  30.3248692  65.5688341  74.9561203  30.8265400
  84.6616077  20.6387305  46.7199230  84.8408508  20.8535218  47.6353312
  85.1191425  21.3155270  46.2210846  31.4093693   2.0219923  52.5506829
  30.4792603   2.1845032  52.7079080  31.8224056   2.1488692  53.4048115
  66.8496132  19.9709141   6.9298077  67.3176718  19.6478915   6.1598659
  66.1341047  20.4965615   6.5720731  49.3773850  68.7815572  10.1139140
  49.7703703  69.4414342  10.6851888  48.9155109  68.1926120  10.7106149
  19.2157674   1.4916928  52.2091389  18.2797635   1.6883776  52.1711588
  19.2637897   0.6374899  52.6383972  70.4313245  79.5214012  55.0263308
  70.2866283  79.6650793  54.0911029  69.9222103  78.7367489  55.2296935
  51.1134203  48.1393219  69.7515084  51.5766867  47.5303532  69.1763820
  50.1870449  47.9429223  69.6118962  62.9324484  17.4124587   6.0324591
  62.3763990  17.3230040   5.2584827  62.5560522  18.1491661   6.5139371
   0.3287697   6.4124310  10.7667553   0.0765134   7.1715993  11.2923622
  -0.1136970   6.5439802   9.9282151  46.5023279  49.6251202  10.3894722
  45.9271193  49.1209698   9.8139727  47.3820829  49.3064499  10.1876915
  64.3281794  21.9952822  25.4969883  64.9030256  22.5013328  26.0711765
  64.6422100  22.1879363  24.6135283   9.5810159   8.6585690  65.1066945
   9.4474490   8.2525088  65.9631456  10.5204256   8.5722090  64.9445693
  83.9979744  47.2433329  15.1665413  83.4340763  48.0023813  15.3151798
  84.3253136  47.3591518  14.2745399  60.5603409  14.6809232  11.4423466
  61.1740351  14.1661549  11.9663882  60.0177336  15.1354146  12.0867467
  62.2150946  23.2723951  15.3065002  62.2744179  23.0477571  14.3779254
  63.1211615  23.2578015  15.6148124  72.4031591  41.1650467  10.0118458
  73.1358576  40.8471251  10.5393922  72.8008747  41.4227962   9.1802114
  82.9121304  45.2081537  46.0204363  83.2924080  45.8289814  45.3989887
  83.6627293  44.7250080  46.3659954  23.0461407  23.4444308  18.7836063
  23.4013272  23.4344268  19.6724093  23.5533238  22.7812004  18.3155096
  79.1326268   3.8887669  47.6900278  78.6182816   3.6019207  46.9354425
  78.4817917   4.1997696  48.3192526  54.2457787  59.8627081  62.3977141
  54.6308533  60.6995299  62.6578621  53.5949245  59.6777596  63.0747782
  85.2809062  73.8438060  64.6625136  85.9234825  73.2679798  65.0769441
  84.4450298  73.5915067  65.0547968  27.2831345  13.3925831  21.6321898
  26.3898278  13.5503840  21.3266873  27.5133420  14.1842937  22.1184325
  56.9462490  26.5617633  10.3963757  56.7436075  27.4547815  10.1176596
  56.7433786  26.5509439  11.3317680  81.0004807  17.0980346   0.7789934
  81.2852383  17.6892972   0.0821777  80.1911926  17.4886322   1.1087134
  13.7092224  38.4670728  69.5672466  13.9392391  38.1899907  68.6803700
  14.1172186  39.3276901  69.6626878  72.7362251  48.5273838   4.6080011
  71.9545746  48.4778166   5.1582724  72.4696541  49.0632296   3.8609797
  54.0187550  18.6401331   1.9303183  53.3090162  19.0288830   2.4415645
  54.5406914  18.1589174   2.5723815  29.0013416   4.3312956  46.0210119
  28.6592491   3.8597752  45.2614890  29.9284561   4.0951945  46.0518585
  56.2962818  13.7863612   5.4866189  56.6807652  13.0231309   5.9177601
  55.3778315  13.5504043   5.3562212  34.0026879  70.9775543   3.9971939
  33.9444232  71.7972708   4.4880131  34.9275231  70.9048223   3.7613493
  72.8303066  46.9104000  65.9603839  72.4483457  46.4822652  66.7265700
  72.0786395  47.1349802  65.4119353  53.3205462  56.1492348   3.7974778
  53.1559420  55.8546305   4.6932155  52.7691841  55.5855370   3.2548156
  76.7177534  40.8025169  22.7905059  77.5016117  40.2891874  22.9861879
  76.7188215  41.5004730  23.4455514  28.6243971  77.6350890  21.2521338
  29.4477423  78.0573122  21.4972186  28.2532843  78.2061876  20.5795646
  67.0293522  19.5410383  10.8778477  67.3384094  20.3717279  10.5163670
  66.3250446  19.2707133  10.2886927  35.9945965  30.3074980   3.4522715
  35.7625962  31.2284112   3.5719699  35.2858925  29.8247290   3.8775995
  22.9871083  47.0200157   7.6139587  23.3740616  47.1025085   6.7423546
  22.7334786  47.9126072   7.8488731  86.0305405  43.4907007  31.2270522
  85.4478645  42.8237295  31.5901899  86.5584183  43.0215025  30.5809641
  62.1801472  67.1566200   3.7765676  62.9131317  67.5767374   3.3266109
  61.4257383  67.3212910   3.2108966  47.7750015  24.9737906   5.2383536
  47.3682451  24.6988916   6.0600668  47.0658255  24.9383402   4.5964432
  79.7004564  22.8997208  62.8945605  78.9631613  22.3272158  63.1063960
  80.4123743  22.5906350  63.4548031  64.3292904   8.1158829  27.9777575
  64.3970108   7.2790807  27.5179648  65.2285957   8.3229959  28.2318950
  72.3387527  11.8436193   8.4907806  72.6544809  11.5395498   9.3417156
  71.3884592  11.8962824   8.5927677  77.6455116  33.9952588  30.5067873
  77.2050762  33.8952827  29.6628356  77.9074526  33.1064916  30.7470202
  83.6766624  64.2510462  15.0469851  82.8685760  64.0470314  14.5762372
  84.2549706  63.5110617  14.8619902  11.2123886  73.4961750  54.0210985
  10.2929226  73.3030846  54.2042111  11.6892305  72.7424981  54.3687032
  75.2636909  70.7217216  11.7967272  75.8945084  70.0981808  12.1565807
  75.0533581  70.3759956  10.9292805  76.6833258  33.5240173   1.6446894
  76.7606354  34.1052365   2.4012867  77.3841238  32.8827715   1.7626737
  63.4726000  58.5697269  14.3643177  62.6026917  58.2775402  14.0920722
  64.0406370  58.3516932  13.6253810  72.3400545   7.3589319  11.8215024
  73.1804943   6.9008636  11.8296099  71.9251204   7.0836544  11.0040176
  79.6628380  52.7326012  19.9760544  79.7405815  51.7785645  19.9775672
  78.7787151  52.9013729  20.3017497   8.2093621  14.1002357   5.1181865
   8.2469464  13.9733326   6.0661924   7.3825551  13.6960649   4.8550224
  67.4528646  26.4197659   0.3248668  66.4998436  26.4782023   0.2572760
  67.6227570  26.3541675   1.2645823  70.5004087  76.3608696  38.5130940
  71.2498489  76.9556072  38.5424052  70.1426092  76.4696863  37.6319729
  74.5570620   8.2391192  52.7415238  75.2316530   8.3173253  53.4160958
  73.8074644   8.7174536  53.0958246  67.6695784  81.7466425  22.0082402
  68.5115774  81.6159299  22.4443316  67.8916128  81.8402310  21.0818648
  67.4714851  33.1358147  11.2050831  67.7261782  33.9534616  10.7775116
  68.2591581  32.8529954  11.6696405  28.4526110  47.4076319  29.1728711
  28.1548858  47.2794485  30.0735164  28.8856101  48.2612371  29.1829443
  73.0975056  60.9633207   4.5201162  72.8517962  61.6080809   3.8566869
  73.3347225  60.1828384   4.0193075  63.4216881  49.2531872  50.4513359
  62.6354504  49.6005726  50.0301600  63.2853460  48.3059072  50.4688644
   1.7529217  48.6373755  31.4638482   1.0645977  48.5557910  30.8037077
   1.9362370  49.5759996  31.5039955  65.8464861  20.1925445   0.0789515
  65.8574677  19.6637726   0.8767685  65.5138874  19.6008682  -0.5959777
   8.8839586  80.3363022  33.0652857   8.1646307  80.3968243  32.4366879
   9.3221314  81.1855482  33.0103517  76.0688400  56.6105890  19.2808211
  75.9432840  56.8938112  20.1865005  75.2288389  56.7855358  18.8565266
  70.7604837  17.5483084  29.5540500  70.2325583  18.2774019  29.2285514
  70.2001810  17.1158540  30.1984715  60.4740953  46.1980200   1.3582209
  59.7108793  46.1894941   1.9358569  61.2171412  46.0407257   1.9407736
  53.6710215  21.5514517  39.2625880  53.6660910  21.7635822  38.3292007
  52.9583931  22.0738339  39.6306968  30.6958691  69.4796684  55.6432329
  29.8041264  69.2239025  55.4074202  30.5838600  70.1126244  56.3524972
  72.3805094  18.4038651  22.4257684  73.3322144  18.3240974  22.3615098
  72.0651007  18.2291591  21.5390730  29.1199930  52.7267052  16.8535662
  29.7737272  52.2338844  17.3495388  29.1859015  52.3827887  15.9627175
  79.8034382   7.1486402  18.8530076  79.5719624   8.0756015  18.7947440
  79.1852236   6.7868489  19.4879508  52.3831940  15.8076811  39.2450356
  52.4666834  15.8470726  38.2922983  52.2443628  16.7166245  39.5110822
  10.9175492  45.3284168  22.3328567  10.0476266  45.7266808  22.3035049
  10.8326245  44.6137762  22.9639769  20.1501616  18.9227225  67.0125173
  19.7753914  19.5994593  66.4487718  21.0906609  19.1006686  67.0075659
  56.3441420  39.5748210  18.6385536  56.7350721  39.1835427  19.4197750
  56.4798784  40.5159426  18.7485301   3.7524415  32.9656744  42.8487730
   3.3344460  33.4355545  43.5703850   3.9885808  33.6498332  42.2223568
  42.9599285   9.6860158  55.1451588  43.5897160   9.8899418  54.4537687
  42.9218626  10.4812074  55.6766224  43.2572182   2.9868008  66.7945330
  43.9241941   2.4534298  66.3622241  42.5234945   2.9972960  66.1799018
  19.4270408  10.0971484  23.7363577  20.0215411   9.3557459  23.6218023
  19.7399664  10.7534850  23.1138372  17.1722754  26.7407204  45.6696330
  18.1282814  26.7496993  45.6226884  16.8977030  27.4586178  45.0991331
  27.7417715  26.3533713  49.7996341  27.8128107  25.4201390  50.0003038
  28.0799778  26.7925764  50.5799828  45.0923586  41.6740513  11.7469013
  44.3867445  41.9594812  12.3273063  45.8942986  41.8606758  12.2350562
  85.0895405  57.5843573   8.0262905  85.3926945  58.3539677   7.5446016
  84.1442013  57.7101898   8.1083333   1.5411568  38.8364458  24.8632693
   1.4143086  38.4713817  25.7389832   2.2671891  39.4521594  24.9633074
  73.3761835  21.6946507   6.3902372  73.5667229  22.3444939   5.7137537
  74.1217422  21.7458940   6.9883579  83.6729336  41.6739559  25.1743913
  82.9344273  41.2767267  24.7128153  83.2952595  42.0076656  25.9881663
  55.6424952  35.3658891  17.6263583  54.9237537  35.4287291  16.9973171
  55.4788351  36.0745835  18.2486129  77.6542759  19.5218706  14.2786980
  76.7924738  19.7509122  13.9307582  77.8008127  18.6233115  13.9831460
   5.8319379  34.9555039   9.8392844   6.0399056  34.9800563  10.7732987
   5.9270383  35.8625937   9.5488095  65.0071239  24.0855789   1.4834657
  64.5932293  24.8713565   1.1264227  64.3028831  23.6344099   1.9490080
  51.5991974  14.0186262   7.9058170  51.8827724  13.9317453   6.9957250
  51.5004730  13.1174445   8.2129949  46.7290783   9.8536795  10.5501199
  45.8526516   9.6850801  10.8960664  47.2816372   9.9359673  11.3273847
  46.4687546  26.4076687  42.1371709  46.7888792  27.0881487  41.5449725
  46.8947418  26.5977599  42.9730116  12.2825066  49.3540921  61.7657576
  11.6018787  49.0826329  62.3816191  11.8437353  49.3690535  60.9151767
  79.4594970  63.2776596  59.1517137  79.8742547  63.7001421  58.3995734
  78.5402789  63.1890752  58.8998745  68.0818605  56.1014318  12.1450126
  67.1893835  55.7703733  12.2455704  68.1962633  56.1983776  11.1996317
  42.5192562  68.3927514  24.4244800  41.9522873  68.7082627  25.1282106
  42.3792664  69.0121200  23.7082277  76.6999674  41.6478014  12.1524358
  76.7883444  42.5594616  11.8744087  77.3318195  41.5524149  12.8651047
   4.1204603  13.3370568  50.2571998   4.1709431  14.0743328  50.8655654
   3.5012062  13.6227347  49.5855270   6.0963631  37.6246643  21.2765765
   6.5720845  37.8045106  22.0874906   5.6440068  38.4443879  21.0774302
  80.9389844  58.8590028  36.1376057  81.5544525  59.4096997  36.6215096
  81.4925924  58.2272496  35.6786571  71.0821486  80.4209805  23.3849239
  71.6566849  81.0138512  23.8693213  70.6535053  79.8968601  24.0615273
   1.0890389  47.9545212   8.7592709   0.6803990  47.7630186   7.9151309
   0.3737260  48.2864475   9.3018389  42.1989870  40.6079674   4.5850673
  43.0802202  40.5127287   4.9464384  41.6691685  39.9809837   5.0774246
  25.3857246  74.6553376  69.6648375  24.8529449  74.9885681  68.9428076
  24.7830120  74.6122172  70.4072031  82.5616455  53.6961079  23.2411218
  82.1133804  54.2412519  22.5945067  82.2062302  52.8182936  23.1020093
  19.5331765  72.5944662  19.5533061  20.3434754  72.2232580  19.9023736
  19.0592480  71.8428469  19.1973817  67.1573877  24.0975499  21.5269423
  67.1505976  24.0888953  20.5698061  67.6472902  24.8873782  21.7558527
  51.9456919  25.6972767  41.4214860  51.9331701  24.7442271  41.3333522
  52.5726183  25.9907319  40.7603656  75.5483389   9.3316197   4.1600093
  75.2712154   8.5023862   3.7703842  74.9190474   9.4875097   4.8642278
  68.4608269  22.0394874  10.2115953  69.3425274  22.4118114  10.2259076
  68.0813742  22.3538589   9.3909740   4.3849810  36.2685801  23.1362902
   4.3826445  36.6027476  22.2393165   5.2183779  36.5666367  23.5007559
  64.0756178  68.3867121   2.3639347  64.7996473  67.7845240   2.1925148
  64.5003510  69.2191410   2.5710499  69.3952990  42.8463602  11.7313552
  69.4276094  42.8322506  12.6879060  69.7479820  41.9966030  11.4672339
  66.9649370  38.3843972  41.5514599  66.5266283  39.1253735  41.9698845
  66.7863806  38.4966160  40.6177793  15.6305424  79.7395756  69.8152244
  14.9749056  80.2215316  69.3111525  16.3993565  79.7139647  69.2455725
  66.0978889  61.9412899  19.1795218  66.3233614  61.0140038  19.2539072
  65.8642769  62.2031593  20.0700736   2.4895001  48.1509924  15.6189036
   2.5930787  48.3544016  16.5484893   3.1598378  48.6767912  15.1825345
  72.3409986  24.4305587  20.3104782  71.7072105  24.5263219  21.0213757
  72.3506308  25.2861071  19.8813236  66.2850857  35.0764251   0.9696820
  66.5618277  35.3771329   0.1041076  67.0654249  35.1690817   1.5162307
  28.9776428  14.3114544  61.1426853  28.0521925  14.4192196  61.3621448
  29.1574104  15.0097824  60.5132018  66.0477972  32.1681929   7.5049263
  66.9586515  32.4443340   7.6065129  65.8650208  32.2838783   6.5724880
  32.6318169  40.5465603  15.0528669  33.2219792  40.6126022  14.3021488
  31.7606927  40.4596758  14.6657956  39.9260950  63.1413555   7.5038010
  40.8270073  63.4107161   7.3248237  39.7833538  63.3767796   8.4205520
  22.8041132   7.5382973  54.8291312  22.5808819   6.6080119  54.8602496
  22.4434336   7.8983904  55.6393622  14.6426201  49.9414587  26.4657760
  13.8327981  49.4365263  26.5397358  14.5208073  50.6785107  27.0642304
  62.8803499  33.8155199  53.0546211  62.1385153  34.2088629  52.5950573
  62.5180109  33.0315854  53.4673999  74.8429632  38.7640762  13.8142526
  75.3117752  39.0020156  14.6141469  75.3274775  38.0154443  13.4663594
  67.0703316  55.1438904   5.5999523  66.3696432  55.5106878   5.0607592
  67.8761959  55.4727697   5.2016389  14.2266901  30.4006506  40.6297432
  13.5511787  30.6770064  41.2490497  13.7743862  30.3529002  39.7875009
  82.1321931  80.2096512   8.4950291  81.1771360  80.1677897   8.4466348
  82.3238197  81.1344650   8.6507021  22.5759522  67.1458461  56.4757524
  23.0513397  66.6350605  57.1309887  22.7165237  68.0567744  56.7339800
  75.5816126  29.5932269   7.6129460  76.3141441  30.0967121   7.9680967
  74.9579144  29.5347881   8.3366978  45.7309063  13.5917784  45.6676613
  45.6876095  12.7899100  46.1885868  44.8175152  13.8569762  45.5598651
  70.9730482  47.5954580   1.5437838  70.4830885  47.8257179   0.7543860
  70.4470778  46.9136477   1.9617859  70.1619482  39.0544701  38.6884022
  69.8391104  38.2127333  39.0100980  70.7664633  38.8252163  37.9825425
   5.4696656  49.1920519   3.8103354   4.6506596  49.1398144   3.3176520
   5.7289220  50.1113081   3.7472329  28.9309128  30.6225277  57.3273741
  29.0969904  31.4615847  56.8976854  28.0311020  30.6908680  57.6465951
  36.0686794  71.6604068  63.6296384  36.5222946  72.0373442  62.8757231
  36.7501179  71.5622380  64.2946504  63.9178562  68.1746101  17.6803803
  63.0426502  68.4666014  17.4254584  64.0029001  68.4430599  18.5952222
  27.5640877  32.1373202  55.4857705  27.0398386  32.6349665  56.1132584
  27.5969322  32.6930548  54.7071098  31.6940404  12.8605950   4.2488843
  32.1739674  12.8521228   5.0770342  31.1051942  13.6117923   4.3209785
  66.3696861  43.7533331  18.5379767  67.0217276  44.4386005  18.6845481
  66.1092615  43.8622046  17.6233423  77.0289946  44.2271280  16.2596107
  76.1967659  43.8668442  16.5659130  77.0927763  43.9413548  15.3482938
  27.5295742   5.8864857  70.5573248  27.6794918   6.1056115  71.4769663
  28.4028109   5.7082917  70.2081336  84.2600822  36.3288164  33.4395528
  85.1130009  36.0850883  33.0799055  84.4400787  36.5516520  34.3528843
  86.8219280  31.8926978  27.9796362  86.4071751  32.6450348  27.5575042
  86.3488674  31.1346221  27.6364613  16.5347481  51.4063692   5.3123885
  15.8334256  51.6345596   5.9225619  17.0852757  52.1886063   5.2768832
  73.2391500  76.9309235  27.2650146  73.3871984  76.6378307  26.3658977
  73.6266994  76.2442112  27.8076625  63.6323547  35.0515580  23.7074494
  64.0975857  35.8511066  23.9534473  62.9447889  35.3483200  23.1112814
   1.6264058  56.8760204   0.5494412   0.9607888  56.2142277   0.3617720
   2.0236111  56.5897036   1.3719274  76.7548752  50.6347704   9.8696256
  76.2489080  51.1960125  10.4571962  76.8137550  49.7975397  10.3298557
  70.3542101  74.0318632  62.0140171  69.8381411  74.7853804  62.3005676
  71.0322153  74.4059372  61.4513397   8.8937275   8.6902761  12.2818685
   8.0375878   8.9196347  11.9204044   9.1689722   7.9242848  11.7781627
  73.9532181   5.8632062  14.5429577  73.4337553   5.7067559  13.7543453
  74.0976187   4.9916670  14.9114575  77.2019046  65.3981876  51.3445902
  76.4828836  64.8640919  51.6822052  76.7944037  65.9585714  50.6841803
   4.6449676  15.6499720  33.4630036   4.5111945  15.8790731  32.5433040
   4.4941616  14.7054088  33.4989214  86.5713526  69.3891811  63.5896206
  87.2035221  68.9148569  64.1296339  85.7505357  69.3358898  64.0791655
  35.6545576  11.8700144  28.2168640  35.8303818  10.9458420  28.0401577
  34.9183425  12.0873568  27.6450409  66.7907655  76.5867615  65.0337744
  67.3586106  76.8866920  64.3239689  66.3513183  77.3799324  65.3403664
  41.0828869   8.0598592  42.5056362  40.2968208   8.5733270  42.3194027
  40.9033946   7.2003507  42.1245098  61.7127060  65.4068565  20.2239966
  61.5037870  65.5037022  21.1530876  61.2729716  66.1446381  19.8014534
  29.3778523  34.1694234   0.1038231  29.1994747  33.5023759  -0.5590950
  29.1046986  33.7668917   0.9281935  47.5624036  79.9477959  39.0797067
  47.8281473  79.0756989  38.7880516  46.6122817  79.8878717  39.1792393
  83.6415770  72.4882746  48.0809402  84.4227266  72.3653078  48.6203098
  82.9293542  72.5944233  48.7115812  87.1111831  55.6747983   8.1860031
  86.4561352  54.9852727   8.2942022  86.5994343  56.4762471   8.0763354
  60.2371637   1.1918401  51.9157791  60.8926694   0.5625009  52.2165728
  59.9487655   1.6366624  52.7127695   4.4671887  60.1151276  56.0004711
   3.5218656  59.9803591  56.0670614   4.5582560  60.9812498  55.6032705
  40.4551562   7.2468445  24.2017616  40.6237563   6.4245675  24.6618427
  39.6738478   7.6024172  24.6252693  76.4889252  79.0934086  51.0545349
  76.5444898  78.4582281  50.3406048  77.3971497  79.2317152  51.3232946
  63.3788016   4.6812699   4.0156283  62.4272114   4.6070550   3.9435162
  63.7074956   3.8264964   3.7371411  22.3276762  13.2379865  23.9613104
  21.7518638  12.6387261  23.4863758  22.9884277  12.6707505  24.3586540
  66.7135873  34.7119448  17.8496517  67.5726583  34.4882510  17.4916138
  66.4617332  35.5108855  17.3865189  33.1441712  44.1468048  66.7675209
  32.3333549  44.1171503  67.2753906  33.4074283  45.0668144  66.7901230
   7.2512203  42.5123549  59.5754766   7.1449429  42.5658560  60.5252504
   8.0500454  41.9995642  59.4523621  47.0069813  51.8875790  53.6697054
  47.0170926  52.6562214  54.2400646  46.8645453  51.1505127  54.2635727
  62.5480324  46.7124818   3.3064999  62.8787616  46.3409779   4.1243233
  63.3230349  47.0752595   2.8775515  80.2323827  24.7993062  18.2540478
  80.2213320  25.7534192  18.1780590  80.1086267  24.4862244  17.3580040
  44.4494276   1.3538026  59.4309378  44.6621196   0.4287290  59.5544100
  44.1883449   1.4189958  58.5123444  24.9287558  73.5693932  52.0490313
  25.0575495  74.1540051  51.3021183  25.5966806  73.8367462  52.6804066
  22.0720468   1.1991166  57.7793312  22.2447292   1.4176606  56.8635511
  21.6614108   0.3351163  57.7460623  43.4253590   1.0503625  45.1050711
  44.3230621   0.9257173  44.7971344  43.0996875   1.7946481  44.5988989
  33.7412175   3.7661860  10.9934200  32.8552636   3.8474629  11.3465656
  34.2631372   4.3777726  11.5128388   7.4452019  61.5248537  45.6229448
   6.6745418  61.1777735  46.0722256   8.0885655  60.8176708  45.6699228
  22.9179726  46.8983697  39.0995622  22.8414617  46.4135789  39.9213600
  23.7526427  46.6115045  38.7290692  70.2559423  59.8928213  46.2539005
  69.7599625  60.5474091  46.7455769  69.6566867  59.1510677  46.1706448
  51.0480931  12.7173731  11.3003124  50.9423700  13.5932467  10.9289612
  50.3683534  12.1937106  10.8760895  26.4618362  16.4274644  54.3104792
  26.3460170  17.3461770  54.5529318  26.7298190  15.9973859  55.1225471
  11.5271127  46.3330269  34.8631763  10.7955837  45.7942200  35.1644874
  11.3282013  47.2108030  35.1890135  47.7103929  51.8059336   5.5445780
  46.9294958  51.3930069   5.9132590  47.3755912  52.5573824   5.0552286
  85.8593209  77.7490330  42.3483276  85.0281159  77.9381895  42.7836990
  86.4359772  77.4514341  43.0519867   0.8966070  43.8266373  46.1581707
   1.0544438  44.6608305  46.6002607  -0.0398379  43.8339853  45.9600592
  28.6434317  78.9251757  31.9973350  28.4936666  78.7463045  32.9256701
  29.5772910  78.7588501  31.8689847  21.7716622  52.7803946  67.4670506
  21.0200739  52.2937679  67.1286201  21.6954541  52.7075768  68.4184313
   9.0990049  72.6815128  38.6029792   8.3229417  73.1642437  38.8874626
   9.0763241  71.8706560  39.1111374  41.0865387  42.9918168   6.2748398
  41.6620776  43.3048413   5.5769838  41.3389715  42.0771954   6.4012922
  62.0993343  42.2088502  12.4210323  62.0156508  42.2281621  13.3743729
  61.6208171  41.4238713  12.1544422  10.4448628  57.8848505  27.4688601
  11.0095119  57.2939301  27.9670739   9.9946851  57.3160839  26.8442988
   1.3439021  41.4034341   5.6945528   1.5582738  40.5223344   6.0010542
   1.7350778  41.9854424   6.3460697  85.9528313  80.7899952  47.0948839
  85.0132110  80.6656075  46.9611931  86.0252156  81.6567326  47.4945831
  54.7840762  73.5545015  54.9704313  54.5225000  73.3153677  54.0812588
  54.5556306  74.4809389  55.0463200  47.1241252   9.3970155  41.6409254
  47.2000579   8.6134767  42.1854687  47.9453604   9.8678254  41.7828465
   8.9898485  70.4372025  48.5046387   9.5533967  70.6763363  49.2404795
   9.2407393  71.0402822  47.8049374  11.0696634  46.0154698   2.1853079
  10.3870472  45.7444642   2.7991738  10.7311090  45.7662652   1.3253607
  83.5747182  70.7858753  60.6781626  83.3561268  70.8739471  59.7504282
  83.6911195  69.8447657  60.8085155  14.4319999  65.2517414  44.8469973
  14.7569191  65.2067995  45.7462406  13.5118067  64.9962425  44.9117661
   3.6981723  41.4849377  12.9395354   2.8860214  41.8112803  13.3270216
   4.0600502  40.8963919  13.6020243  49.4136116  38.4307597  18.2853951
  48.8647684  37.7263615  18.6301102  49.7394266  38.0939219  17.4507584
  46.5582137   7.9825830  36.7147613  45.9587483   8.6219453  36.3299537
  46.3157873   7.1512460  36.3069105  68.7435262   5.0491952  69.8995256
  68.3089654   5.2039002  69.0608025  68.7134640   4.0992498  70.0132275
  11.3465488  48.7294769  36.5071964  10.4073226  48.5951042  36.3805866
  11.4057744  49.2987204  37.2744560  21.8393163   0.1385449  50.6414795
  22.6284174  -0.0801612  51.1371756  21.1435465   0.1651525  51.2983131
  35.1064728  21.5742349  66.2496090  34.2282145  21.8476438  65.9847593
  35.3710834  20.9401368  65.5831814  15.6247818  56.8724489  41.2423038
  15.8565044  55.9448767  41.2886143  16.1052406  57.2017145  40.4827118
  49.7792904  14.3867635  52.9335070  49.7085373  14.2676114  51.9863892
  48.9673917  14.0189790  53.2824898  78.6958155  24.7463915  25.5032982
  78.0478391  24.3136618  24.9473252  79.5110306  24.6968434  25.0040974
  29.9334246  15.6227159  58.2180882  30.5450398  14.9035405  58.0601501
  30.0699964  16.2192773  57.4820900  78.4741775   6.3693570  54.3056107
  79.2140881   6.9754743  54.3428326  78.8768760   5.5017232  54.2697716
  19.3147933  73.6144161  61.0464334  20.1884604  73.2255268  61.0876656
  19.1604197  73.9507198  61.9292164  66.4686033  44.3029187  10.8125366
  66.0654184  43.8684819  10.0609078  67.3683026  43.9763425  10.8236946
  23.8758111  62.6852703  59.1522503  23.2097650  62.1267557  58.7514019
  23.6628675  62.6799345  60.0854492  83.2472124  48.1288433  68.0309534
  82.8357964  47.9468250  68.8758421  82.9531556  49.0116930  67.8066063
  60.1556587  75.1115084  19.5274329  59.4623803  75.1926613  18.8724434
  60.0409793  74.2330837  19.8899972  73.1341740  26.8553851  14.8921456
  73.6840555  26.0870049  14.7389950  73.4602210  27.2233889  15.7134308
  35.0459870  49.9032471   2.7244772  34.7392830  49.7918675   3.6243452
  34.4138202  50.5030701   2.3284878  79.8472916  70.4779148  37.9528117
  79.2339074  70.6694889  38.6622405  80.6450140  70.1905346  38.3969784
  22.8820395  61.6714668  61.6845465  22.2420287  62.2941542  62.0293427
  22.3532391  60.9840631  61.2794924  30.0353512  50.2305768   7.1559395
  29.2125782  50.7086918   7.2592510  30.1575312  49.7806809   7.9919447
  83.8755187  22.1362660   6.6114058  83.6596164  22.2344325   7.5387587
  84.2643508  21.2639687   6.5470518  86.4803839  35.0074840  45.9153366
  86.1241657  35.7845187  46.3461018  86.7144479  34.4209623  46.6346645
  36.2894003   8.8054322  27.3519897  37.1369706   8.3632611  27.3035240
  35.6568770   8.1415605  27.0773458  56.5235236  62.5688241   0.7892765
  56.7147651  63.0122063   1.6157593  56.8175082  63.1815121   0.1151718
  34.8225258  30.5143403  41.6469526  35.2761964  30.5590867  42.4886274
  35.3166137  31.1035585  41.0769224  84.2320901  73.0035734  68.1157589
  83.4749469  73.5704851  68.2626629  84.2695526  72.8954697  67.1654224
  38.3877663   0.2147435  40.1867056  37.5513087   0.4808950  40.5684519
  38.5157566  -0.6831790  40.4926252  40.5470972  18.2144403  39.8585916
  41.4274196  18.5048722  40.0971603  40.6407051  17.2760629  39.6945572
  77.4107301  70.0781775  66.2912512  76.5776288  69.7386980  65.9642506
  77.7064502  69.4209719  66.9212246  85.2493788  55.4494715  51.9099283
  86.0631104  55.2149343  52.3560953  84.6062531  55.5345631  52.6137590
   2.3600578   4.4253454  37.5432181   2.7901733   3.9818203  36.8121099
   3.0703717   4.8723730  38.0034924   5.1792771   9.7992021  39.0961385
   5.0367737   9.5354581  38.1870914   5.5916095  10.6607819  39.0337276
  82.1994155  54.5308971  57.1833897  81.6021185  55.2202845  56.8932009
  82.3077007  54.6870613  58.1215334   0.5863978  49.5669985  26.8704247
  -0.0700582  49.6421099  26.1778522   1.1181927  50.3580856  26.7831826
  79.5244318  16.3368750  42.7932310  79.6625977  16.4347219  43.7353373
  78.9664333  17.0771694  42.5548267  23.2108889  73.3028434   2.7439417
  23.6012988  73.2735990   3.6174168  23.9307053  73.5613845   2.1683993
  24.1893411  57.2211075  53.7990761  24.7817802  57.0741796  53.0617428
  24.0438175  58.1671667  53.8045597  68.9253949  38.2515144  20.4405284
  68.0661332  37.8360105  20.5130386  68.9517938  38.8753033  21.1660767
   6.0998595  19.3299973  21.1173415   5.5588984  18.6518526  20.7127237
   6.9872624  19.1428363  20.8112049  83.0355504  22.5849128  23.3812523
  83.7846630  22.9742146  23.8323689  83.4228882  21.9551158  22.7733397
   6.1626768   2.9334605  22.0874858   5.4721224   3.1406191  22.7171302
   6.0719240   3.5984910  21.4050412  80.3880560  46.7588234  36.9080567
  81.1286938  46.3792753  37.3809552  80.5020612  47.7043915  37.0036125
   6.0359317  38.4734297  23.9497232   6.3502091  39.3771005  23.9786887
   6.4787054  38.0423117  24.6806955  69.9378807  74.6193642  32.4680305
  70.2406378  74.4186063  33.3536196  69.9039180  73.7698830  32.0281887
  45.0306555  48.3326409   8.5349192  44.0928039  48.4274838   8.7012591
  45.1970681  47.3947880   8.6296620  41.4846727   8.2084153   1.9157566
  40.5852875   8.5070822   2.0504297  41.4266058   7.2533820   1.9436182
  14.7879807  58.2130395   3.4175266  14.7907786  57.8069793   4.2843212
  15.4988234  58.8532256   3.4506382  46.5908861  49.5730257  55.0687122
  47.1772765  48.8869953  54.7497416  45.7690572  49.4218159  54.6018457
  72.3855936  50.4793692  34.4992065  72.1588182  50.7471371  33.6086440
  73.3033108  50.7324648  34.5990491  73.0236244  41.5349340  52.0651913
  72.8689002  41.5725899  51.1213303  73.6000692  42.2780609  52.2432423
  15.3887010   8.8838989  10.5457413  14.7245777   8.6790401  11.2039244
  15.3600144   9.8372740  10.4652095   0.0500270  29.4999528  69.2520571
  -0.1566519  30.3885174  69.5418358   0.6422109  29.1607904  69.9232674
  70.8553731  47.8687382  53.0773830  71.5326905  47.2267485  53.2902718
  70.0319063  47.3927832  53.1850910  61.3601207  71.5816259  42.3380232
  61.6624498  70.7777405  41.9154167  61.8894529  71.6480827  43.1327724
   8.3005226  34.6067095  50.3137064   7.7592212  35.2130222  49.8081255
   8.0979598  34.8093176  51.2270212  27.9107135  66.8296074  10.0339188
  27.9992749  65.9637402   9.6355976  28.7723314  67.0094608  10.4100861
  60.1849025  68.7769724  44.6367741  60.5535699  69.3355418  45.3211117
  59.2864047  68.6104394  44.9217319  15.5058920  63.2683611  60.8702993
  16.1219049  62.7680254  61.4054918  16.0122061  64.0197468  60.5616045
  42.4254589  79.5977973   6.1920704  41.5440647  79.8203705   5.8923401
  42.7065150  80.3608178   6.6970839  28.2476696  29.1569315  11.1995281
  27.5417153  29.2703520  11.8359245  28.7341219  28.3951686  11.5146698
  73.7825548  67.4668121  31.1675453  73.2637417  68.2697201  31.1184502
  73.3191120  66.8473434  30.6038880  82.8020143  31.2413859  44.8626614
  82.4455892  30.4215884  45.2048874  82.1090113  31.5876365  44.3004417
  70.0055491  43.3432102  69.2652369  69.8328947  43.0225468  70.1504517
  70.0896978  42.5504255  68.7354803  10.7752287  41.3624525  45.5118513
   9.9494851  41.0791683  45.1192617  10.6435144  42.2911310  45.7027483
  25.7933593  23.9917397  47.9366302  25.0100684  23.4841633  47.7243710
  25.9020257  23.8807416  48.8811398  86.1569083  35.3277826  57.5257254
  86.3137496  36.2266254  57.2363901  85.4394331  35.4005241  58.1551456
  26.4162874  23.2120490  30.2104783  27.1915960  22.6670337  30.3449750
  26.0733914  22.9352212  29.3607593   6.4833885  35.2775049  52.3020649
   5.6434989  34.8232579  52.2351551   6.2897968  36.1783504  52.0427704
  57.3499164   8.5445426   3.3802427  57.4315832   8.8588593   2.4798168
  56.4150147   8.6129210   3.5739292  59.0934777  55.9870148  60.2824640
  58.7039327  56.6415596  59.7027588  59.6899843  56.4860058  60.8405161
  34.7556400  13.6219454  19.7556984  35.2310038  13.1005538  20.4025459
  35.1563668  13.3882618  18.9184165  66.5123148  56.2251497   8.5359442
  66.3213743  55.9312178   7.6452267  67.4675728  56.2076736   8.5943246
  11.9296122  27.7445078  56.0007811  11.9197154  27.2591448  55.1758242
  12.3890984  28.5584307  55.7943058  12.8822351  79.6551609  65.5334044
  12.9546237  80.0589848  64.6685839  12.1206343  80.0766659  65.9315681
  84.8835451  16.4406049  65.1689386  84.1197761  16.9160187  65.4958487
  84.7278645  15.5317163  65.4256821   4.7676229  30.3862333  44.9326372
   4.4834054  30.9591007  44.2204046   4.3214166  30.7279754  45.7074547
  11.8722284  27.2138190  25.9066129  11.8802154  28.0891228  26.2939310
  12.7300537  27.1281314  25.4906511  74.9823999  68.8531876  65.1549149
  74.2812049  69.0490341  64.5334625  74.7492277  67.9986000  65.5176020
  15.4854825  68.5826757  39.1187177  14.9728659  67.8258970  38.8345681
  14.8910823  69.3261387  39.0177928  83.1324231  23.9231539  52.6135778
  83.4233310  23.6708331  51.7372561  83.4748804  23.2370138  53.1864405
  63.5323238  59.7657728  55.2744865  63.5463261  58.9489365  55.7732964
  64.2022323  60.3103590  55.6878614  77.2236788  48.4060335  11.1950839
  77.5663250  47.7267647  10.6142020  76.5371084  47.9674816  11.6976011
   9.3886954  24.4200301  10.4844022   9.2098892  23.6995888  11.0887408
  10.2032661  24.8061275  10.8063245   4.0802550  25.9115839  27.7904391
   4.6816990  25.9342885  28.5347390   3.3895293  25.3057957  28.0590487
  25.3932643  78.8798189  20.9402013  25.9402514  78.5514832  20.2265978
  25.0229192  79.6952724  20.6024027   2.9770014  34.4289374  36.5892601
   3.6767063  33.9689326  37.0529866   3.4320277  35.0754023  36.0495710
  60.4969811  38.8776159  57.8902960  60.8208656  39.0640950  58.7715244
  60.0005698  38.0646515  57.9846191  14.8173988  21.3743591  22.8894973
  15.4405737  21.8759942  23.4150887  14.9029601  21.7354965  22.0071769
  85.7965654  31.0323668  18.5472441  84.9277494  31.2573600  18.2144248
  85.6258579  30.4552317  19.2915606  10.6699455  69.9481010  30.6300974
   9.9193203  69.4321918  30.9244299  10.4837334  70.1389360  29.7107816
  82.1923717  63.8505650  61.9498110  82.2193553  64.0256262  61.0091400
  81.8771067  64.6674538  62.3365116  18.4612048   2.8450963  47.5664759
  17.7097929   3.4301010  47.4696207  18.6122203   2.5013897  46.6859722
  83.2133561  58.9836359  46.0972071  83.2147744  59.5888281  45.3556013
  84.1371360  58.8852358  46.3278103  18.5320461  62.8903770  53.6040878
  19.3589628  62.4115562  53.6603928  18.7873411  63.7824106  53.3688545
  25.8504486   4.6465746  53.5610676  26.6732407   4.5914960  54.0470839
  25.1930141   4.8523259  54.2256546  82.3067337  56.4265299  35.5422974
  81.5812390  55.8636951  35.8126807  83.0880305  55.9896231  35.8812952
  18.9045310  32.8336573  38.4791470  18.2056451  33.4096360  38.1692433
  18.8945591  32.0956111  37.8697038  82.7561184  66.2447214  31.4752173
  83.5134008  66.6028261  31.0120606  82.1413752  66.0068321  30.7811475
  77.0983457  19.2028546  69.6408796  76.5264558  19.8951113  69.3092871
  76.5202510  18.4484136  69.7542715  76.8500399  33.0117679  47.8206539
  77.2899466  32.4981308  47.1432400  77.4868851  33.6840606  48.0628967
   1.8448791  10.0343058   5.3397955   1.5784273  10.7393191   5.9298720
   1.8305907   9.2475531   5.8848156  76.4878265  65.0603436   4.9779572
  76.4326040  64.8069261   5.8993448  75.7791749  64.5766233   4.5536198
  41.4890718  61.9724131  37.1646786  42.0476007  61.9235229  37.9404926
  41.1003351  61.1005592  37.0940828  29.1409254  72.6613951  55.6779528
  28.9026546  72.2691393  54.8379564  28.3029675  72.8565407  56.0974503
  51.5011367  20.3354046  -0.0696455  50.9497740  19.6727727  -0.4857622
  51.8397924  19.9061988   0.7160582   0.2369985   7.0893405  19.4618382
   0.8880338   7.7900288  19.4240917   0.5724487   6.4184306  18.8672127
   0.4065658  61.6806412  68.2383823   0.1661166  62.4562311  67.7315569
   1.0235390  61.2100649  67.6779079  51.6921353  75.2168179  68.0718517
  51.8085265  75.3838825  69.0071487  50.8922409  75.6895638  67.8418303
  27.0782426  79.7738694  -0.2354847  27.5433101  79.0135788   0.1136603
  26.4088224  79.9673055   0.4207863  14.3571591  58.5574532  50.5424213
  14.1482008  58.9516211  49.6955490  15.3081107  58.4492064  50.5281162
  33.5019122   0.0445127  52.1954679  33.3867909  -0.2675391  51.2979126
  32.7994107   0.6828260  52.3190737  23.6243463  58.9992189  39.8156381
  23.4045172  58.1121922  39.5308733  22.9115820  59.5423412  39.4791532
  75.0334226  64.8952913  24.8480749  74.7030734  65.1151371  23.9770007
  75.6058370  64.1417551  24.7040033  11.3686347  57.7470303  55.2719021
  10.4269695  57.8759480  55.3853893  11.4481938  57.2838879  54.4379950
  23.0248380  78.3339024  57.3841715  23.8653970  78.7917995  57.3890781
  22.3724365  79.0299940  57.4620104   9.5530027  46.7959404  52.8979492
   9.8414010  46.7501736  53.8095236   9.9833703  46.0540056  52.4730396
  74.6790811  21.2722991   1.2164940  74.8116144  22.0618174   1.7412104
  73.8687321  21.4381144   0.7347550   4.9788138  49.2289019  58.9556789
   5.5715370  48.4882545  59.0835476   5.1285219  49.5019913  58.0505610
  15.1842713  71.5133142  21.3059783  14.3204594  71.5057611  21.7182970
  15.6810617  72.1635103  21.8026447  67.5938618  53.4902811  57.2599554
  67.9959642  53.8071918  58.0687284  68.0954432  53.9116192  56.5620136
  22.4600911  58.8762903  35.0054455  23.3396149  58.7827349  35.3713894
  22.0874667  57.9956961  35.0494051  48.3478164  67.6782560  44.3808079
  48.6304020  67.1255064  45.1093960  47.4160003  67.8276587  44.5409012
  69.7350597  41.6591549  41.6009283  69.6791720  42.5737810  41.3242197
  70.5254757  41.3278341  41.1746645  15.8647525   9.4720924  31.2019539
  15.6963193   8.8372713  31.8982768  15.2290726   9.2541933  30.5202937
  84.9514374  34.2113662  18.9942813  84.2868386  33.5236454  19.0340042
  85.4415188  34.1183114  19.8112226   9.6313286  34.1521215  14.7740328
   9.1817731  33.7239647  14.0454638   9.6559829  33.4885526  15.4634523
   4.9460188  73.0239725  52.2408915   4.9431178  72.0670986  52.2161150
   4.1240889  73.2548523  52.6737404  75.4706108  55.5575991  33.6963105
  76.0354614  55.6867886  34.4582057  75.7466280  54.7159338  33.3334827
   5.8625656  48.0217505  33.6371493   5.2716136  47.5454712  34.2203856
   5.5942976  47.7581024  32.7569485  23.2763038   3.6853170  33.1145120
  23.6489717   4.4028901  33.6268044  23.6740397   2.8963708  33.4827447
  72.5562941  56.0698128  21.0855794  71.7341232  56.4226294  20.7453060
  73.2363116  56.5764284  20.6415701  40.5068221  63.2598140  68.1796078
  40.1595703  63.2645228  69.0715864  39.7930684  62.9095986  67.6465638
   6.4547813  49.7151709  46.9014835   6.5511036  50.6668568  46.8662453
   6.2057310  49.4665194  46.0113239  84.4017112  63.3531809  42.9960823
  84.0051543  62.7495193  42.3679304  83.6894756  63.5778189  43.5948181
  22.3813987  43.7528706  37.4705720  22.2799182  43.0777407  36.7996526
  22.5393224  44.5582438  36.9779634  17.0055759  51.2732410  51.3576651
  17.9555631  51.2387466  51.4697695  16.8366468  50.7408619  50.5803204
  68.8695072  44.7017002  46.3764191  69.7485351  44.9856567  46.1256027
  68.3768164  45.5151892  46.4847183  72.0182554   1.0816621  58.4949207
  71.2368242   0.5469655  58.6352730  72.5256578   0.9802674  59.3002129
  70.1328906  32.6266644  23.4834351  69.3180260  33.0441783  23.7625565
  70.2133104  32.8538344  22.5570645  29.7964787  42.2833538  10.8481395
  30.7237911  42.3181725  11.0828948  29.3359494  42.5021982  11.6582334
  32.2231007  49.2779970  27.9977989  32.1790051  48.3407545  27.8084135
  31.4656496  49.4448996  28.5587287  25.0269151  29.0428710  28.4709835
  24.1563416  28.7438464  28.7335014  25.0443339  28.9250469  27.5212216
  76.8343484  25.1665282  47.2283649  76.2379002  24.6602893  47.7799129
  76.2603950  25.7286978  46.7080069   5.2127057  66.5719271  51.8158054
   5.3408259  66.1395931  50.9714699   5.9183389  66.2341452  52.3673677
  48.0717985   3.5429811  67.5329638  47.9618875   3.9348935  68.3993101
  48.5992805   4.1777276  67.0481062  50.5412411  68.9727545  58.4156847
  49.7617721  69.5149565  58.5368252  50.6103277  68.8610792  57.4675369
  16.0924351  27.9975700  29.6351385  16.8750596  28.5482907  29.6142840
  16.3299549  27.2243619  29.1233110  75.4783201  57.2940826  24.4235420
  74.7341465  56.7057991  24.2956424  76.0039269  56.8712616  25.1026511
  14.4830307  48.7776635   7.8161587  14.1417393  48.5771821   8.6876835
  15.2659449  48.2330582   7.7344145   6.0391133   2.9140805  43.0380154
   6.6091292   3.6776208  42.9467583   5.8737795   2.8496694  43.9786243
  59.0251192  29.2192147  15.9493889  59.1108188  28.2701323  16.0395779
  59.8864059  29.5613120  16.1889424  73.8866650  60.2360201  61.5577507
  73.1015133  59.8923159  61.1315584  74.5206260  59.5208311  61.5045214
  49.6843335  12.0903990   0.7197584  48.8581225  12.5466797   0.5603327
  50.3481480  12.6483176   0.3144087  85.7994816  58.4157610  40.2217770
  85.2088829  59.0563583  40.6180859  86.3607102  58.9328003  39.6439147
   0.3824130  57.3493195  21.1944985   1.2104415  57.1367502  21.6250968
   0.1124614  56.5312052  20.7773113  13.9185071  65.7753563  50.4207611
  14.3991876  65.1265192  49.9067688  13.8293636  66.5269089  49.8347139
   1.2333177  51.8139315  45.1837873   1.2715910  50.8676672  45.0446939
   2.1150395  52.0494413  45.4724646  66.8792192  27.4423265  50.0311518
  66.5209619  27.8380059  49.2365932  67.7791635  27.2127389  49.7995853
  26.4961359   8.9397000  32.3954201  26.4557330   9.3898915  33.2391787
  26.8314826   8.0679845  32.6048756  24.0418530  39.6542549  65.4140997
  23.8361812  40.5347633  65.7281637  23.2668161  39.3895721  64.9186230
  30.3017759  59.8381710  68.6052847  29.6632075  59.7890329  69.3166590
  29.7801018  60.0407076  67.8287125  18.2379413  56.8376160  16.0316825
  17.7173901  57.0873928  16.7951405  17.7573347  56.1068630  15.6427729
  13.7607300  26.3266253  53.9213705  13.6873055  25.7823563  53.1373978
  14.5586562  26.8373299  53.7845182   1.7510001  71.7300987  38.1327152
   1.3703400  72.3404074  38.7642622   2.2093858  71.0841703  38.6701989
  82.8300115  76.3389969  39.1017032  82.6396080  75.9668636  38.2405996
  82.0040422  76.2698221  39.5804739  19.0311313  68.3691788  58.1506252
  18.9268196  67.5451088  58.6262941  18.4013450  68.3123255  57.4320412
  77.3647183  63.8474083  41.2659025  77.4119484  63.3173132  42.0615149
  77.1586358  63.2206583  40.5724001   4.7922754  63.0575228  27.3109078
   4.8581663  62.1073103  27.2161198   4.6856412  63.1975460  28.2517886
  16.0962379  80.9399223  48.9692736  15.7193601  80.6774998  48.1294394
  16.6741204  81.6720486  48.7541580   9.1418223   0.1692437  68.4214306
   9.4899837   1.0509919  68.2890129   8.3085625   0.1675080  67.9503632
   7.3907554  60.4428291  38.5118985   6.7979896  60.0178957  37.8919840
   8.2642055  60.1620340  38.2390022  79.0664780  62.2841787  39.0792966
  78.7116473  61.8286753  38.3158565  78.8991415  61.6907310  39.8114491
   7.6988918  28.9899850  50.3576517   7.7977866  28.3733916  51.0830927
   8.4987855  28.8841987  49.8426628  11.1366877  10.0250552  -0.2001940
  12.0689520   9.8080084  -0.2020012  10.9920940  10.4532359   0.6436028
   4.9899006  53.6323357  60.3350019   5.6405264  53.3192301  59.7066021
   4.1494304  53.4954119  59.8978567   3.7725791  40.2461672  41.8145847
   3.3172914  40.3175640  40.9756279   4.5425022  39.7101760  41.6244125
  83.6481588  52.9628658  63.5768414  84.2478352  52.9819727  64.3226671
  82.8044098  53.2306480  63.9410019   5.5692083  82.0913219  59.0106010
   5.8544207  81.5120506  58.3039713   5.8613694  81.6548061  59.8108053
  33.4206772  68.3148432  55.6898022  33.7467289  68.6392832  56.5292454
  32.5300717  68.6603355  55.6290865  12.4621415  25.8139944  28.4571600
  12.7609527  26.7206812  28.5268927  12.8565526  25.3732729  29.2097783
  79.6910172  44.9515295  30.0723124  80.2841317  44.7911358  29.3383384
  79.4833499  44.0792990  30.4074621  39.5321624   9.3143319  28.2483792
  38.9226489   8.5880803  28.3798361  40.1895813   8.9689397  27.6444411
  80.7589435  29.3301320  60.5134773  81.6082942  29.6967292  60.2676296
  80.1649021  30.0806975  60.5129290  60.1291179  59.2749977  64.2672634
  59.7600507  60.1315975  64.4823551  60.5942320  59.0086174  65.0603199
  21.3569812  79.4660972   6.1001314  21.8060826  80.1393531   6.6112723
  20.4298024  79.6950005   6.1647476  14.5815301  73.8175440  47.7909946
  14.6871698  74.7685385  47.8170490  14.5655739  73.5530376  48.7107849
  25.7738113  66.8831825  59.0811729  25.4824924  67.7898312  59.1778851
  26.6761184  66.9534874  58.7695122  21.5570855  50.7354546  42.0076752
  21.3241982  50.6439734  41.0837603  21.8759656  49.8692703  42.2612047
   2.1456142  74.5482159  64.5946646   2.6859912  74.6633959  65.3763056
   1.7858604  73.6653233  64.6801710  15.1651967  53.4676933  13.6314058
  14.8388219  52.5739527  13.7360227  14.4845557  53.9137793  13.1274545
  77.0198986  53.8173649  11.4800228  77.4647340  53.0357239  11.8077435
  76.7615994  54.2943356  12.2687020  70.9828877  24.0943241  22.6486278
  71.3966786  24.3806553  23.4628892  71.3617682  23.2320714  22.4777412
  58.6857025  29.5184182  30.9965563  58.4891574  30.4275273  30.7704186
  59.0664260  29.5666741  31.8734550  14.2848313  24.3449330  64.5968485
  14.0291083  23.5192633  64.1856194  13.5997629  24.5124388  65.2440405
  19.5347810  43.8545132  10.1959884  18.8189936  43.8473940  10.8314633
  19.1006327  43.7885427   9.3454617  67.9102563  46.6587353   8.9979035
  67.0542013  46.2569427   9.1461003  68.4501159  45.9500170   8.6478984
  11.0461605  50.4760361  32.8772426  10.4094219  50.0652313  33.4620810
  11.7595613  49.8408127  32.8157496  18.4896231  66.6311121  36.6444945
  18.2832217  67.5549650  36.5026355  17.6402318  66.1902142  36.6251159
  24.5507288  38.6076379  48.0121994  23.6913991  38.7912011  47.6326036
  25.0946927  38.3594465  47.2647095  69.1428589  16.8970907  25.4698515
  68.5891783  16.3915372  26.0649014  69.4980084  16.2474871  24.8631287
   7.1619886  74.2876816  46.1766148   6.2246275  74.4768810  46.1343336
   7.5842029  75.1298094  46.0069609   5.0806963  43.9744091  23.8661504
   5.4905593  43.1106234  23.9121890   5.4715526  44.3841505  23.0944157
  37.3777366  28.1891370  10.2449489  37.2713923  28.6882329  11.0547793
  37.0999026  28.7910008   9.5544416   5.6150413  61.1166334   9.6469074
   5.5101353  60.1919746   9.8710412   4.7206494  61.4540339   9.5973384
  15.1913476  57.1501112  44.0322924  14.4174707  56.6101551  44.1928864
  15.3158236  57.1142292  43.0839014  55.1775312  62.5862932  39.6173835
  55.1205611  62.6983452  38.6684728  55.0807738  61.6437769  39.7535014
   9.6985182   4.4203637   7.7939667   9.1792020   4.7843382   8.5109486
  10.5892381   4.3763802   8.1416954  25.9356356  33.7783098  21.7890716
  26.7312360  34.2952991  21.6626859  25.2499890  34.2830777  21.3516569
  36.8518734  71.2283325  22.8917742  36.8649888  71.2731075  21.9357133
  37.0569468  70.3149605  23.0916071  18.2987237  21.7030191  52.2553396
  18.6245430  20.8909750  52.6434851  18.0451989  22.2418356  53.0047655
  74.6001371  43.8597176   9.9902405  74.3644473  43.1239007   9.4252075
  74.1011080  43.7139676  10.7939591   3.9289251  26.0827279   2.7057064
   4.0291446  25.5933690   3.5222340   3.9447570  27.0015264   2.9736385
  40.5369043  31.3845038  49.7666693  41.4621544  31.2317443  49.5748043
  40.1126671  31.3933682  48.9086628  33.7220335  43.1186390  28.6853814
  33.7356901  43.1065941  29.6424079  33.3497143  42.2715092  28.4404778
   9.9196965  57.4650812  48.0564547   9.6307772  58.0504084  48.7565613
  10.6569409  56.9854879  48.4342051  23.7260507  33.3285951  28.5922647
  24.5334564  32.8329705  28.7289810  23.9951707  34.2453908  28.6495543
  87.0530264  30.3833818  42.5238943  86.4536039  29.6784734  42.2788954
  86.5405457  31.1838388  42.4104452   4.9083254  61.5771437  32.6371884
   5.1266122  61.6524076  31.7082548   3.9513886  61.5703249  32.6585674
  46.9781876  54.4554424  32.3841500  46.5308952  55.0929165  31.8275595
  47.7727938  54.9047804  32.6721144  48.8983520  14.6679137  15.2578224
  48.7137672  15.6045554  15.1880802  48.5514846  14.4185612  16.1144032
   3.4470609  64.7990084  19.8040593   3.5119349  65.2799988  18.9790320
   2.5860593  65.0330305  20.1506734  15.2881908  48.1151199  29.6763968
  15.8178854  48.8999319  29.5359325  14.5213127  48.2405567  29.1174746
  68.9907443  48.9473486  62.8599119  69.1418039  49.6457624  62.2230196
  68.0521142  48.7689877  62.8016615   2.5583020  39.9292898  55.7277918
   2.6850975  40.4446602  54.9312067   2.0235445  40.4879141  56.2918901
  26.0931706  17.1778405  69.6172667  25.3303123  16.9739199  70.1582766
  25.9418917  16.7017710  68.8007450  11.9224286  67.8222466  19.4925523
  11.7081654  66.9315529  19.2150807  12.3815596  68.2024908  18.7436581
  66.4921712  78.2871771  57.6050997  67.3461985  78.2011700  57.1814585
  66.0618591  77.4464369  57.4494791  66.5617942  42.0113087  35.6074595
  66.1607766  41.7815113  36.4456773  67.4261486  41.6009855  35.6349826
  27.2078919  54.7570276  35.4103041  26.6818476  55.3401041  34.8630118
  27.0946932  55.0954103  36.2985134   8.4039599   1.9878928  35.0083780
   8.2792234   1.7907605  34.0800405   7.6162291   2.4706662  35.2586627
  79.1295319  60.4736805  67.8908348  80.0817602  60.5499554  67.8302193
  78.8031422  61.3345957  67.6290655  13.7161994  60.2260065  39.7123122
  14.0569389  59.4420576  39.2815542  13.0760503  59.8942709  40.3419065
  65.5287568  48.4157185   7.2406639  65.6252806  47.7472101   6.5624251
  65.1638810  47.9454403   7.9902901   3.1947449  49.3977213  24.8299766
   2.6433423  48.6432171  25.0371265   3.3864900  49.7947121  25.6796026
  13.9458454  35.3770065  15.8491302  13.3178806  35.5753970  15.1544845
  13.4131932  35.3102684  16.6416323  49.9849606  59.2489290  24.9278545
  50.7886791  58.9665651  24.4913435  49.2806149  58.8817263  24.3937325
  85.6102528  69.4236994  47.3961210  85.7538287  70.2807283  47.7975130
  85.0753919  68.9481163  48.0317116  70.2532315  52.6428509  53.3087587
  71.1942171  52.8082466  53.2502604  70.1380002  51.7752314  52.9212093
  13.9388065  67.4503969   6.7369904  13.0736320  67.6014708   7.1176256
  14.1353552  68.2573508   6.2611498  30.1688099  80.3204823  27.2142839
  30.0740337  81.2548256  27.3993778  29.5361781  79.8961258  27.7938771
  69.2884600  29.4866109  54.5456219  70.0246274  30.0682807  54.3560171
  68.8144934  29.4220614  53.7165165  85.0790347  69.5059967  55.0077963
  84.5192375  70.1483774  55.4439211  85.2442526  68.8399935  55.6751633
  33.7727026  74.0406512   5.0984253  34.2058061  74.8239945   4.7592701
  32.9065747  74.0504764   4.6910490  14.7957909  61.7481279  43.6024714
  14.0264714  61.9436789  43.0675507  15.3961301  62.4741650  43.4330702
  61.1451714   1.8461846  41.0109901  61.5426342   2.0156716  41.8651152
  60.3064768   1.4323949  41.2149668  66.0122728  62.5313616  40.6367826
  66.5026379  63.3408976  40.4938650  65.6542444  62.6209593  41.5199709
  54.2976809  65.4790878  25.9997940  55.1417208  65.2195883  26.3692403
  54.4459867  65.4989338  25.0543618  18.9749360  45.1672316  58.0231953
  18.0457950  45.3174448  58.1974554  19.0896809  44.2233038  58.1330538
  17.0254636  49.2066145  46.2066793  17.2060835  49.7894573  45.4691839
  16.6137445  48.4389162  45.8099937  24.2596865  38.8684416   9.4326371
  23.4916592  38.3736086   9.1471404  23.9087725  39.7124338   9.7168326
  21.5984178  46.6892624  53.6785555  21.5286660  46.8567228  52.7387047
  22.2558331  45.9972525  53.7503958  73.5562574  45.1463461  61.2099409
  72.7612924  44.6989584  60.9199333  73.3121645  46.0713243  61.2426329
  27.4227905  72.2723913  50.6799555  27.0960689  71.7254591  51.3943434
  26.7239380  72.2549820  50.0260925  25.9070945  70.6109047  70.3963423
  25.7630062  70.2637005  69.5160484  25.1627707  71.1930609  70.5490017
  85.5918224  15.6501067  41.7868376  85.6710027  15.7112610  42.7387953
  84.6770468  15.4111516  41.6374445  75.3543126  76.3367033  48.9943504
  74.4287824  76.5272188  48.8416100  75.6295633  75.8484316  48.2184267
  14.9652946  66.1734962  57.4027824  15.8388591  65.8197451  57.5700569
  14.6723545  65.7234812  56.6103792  80.8109539  38.7358880  28.4556222
  79.9236845  38.7916398  28.8104129  81.1702436  39.6157336  28.5696983
   4.0314143   3.5944413  27.9296422   4.1210120   4.0233659  27.0786262
   4.9270098   3.3651303  28.1777525  61.1050312  17.6316308  49.4208574
  61.6891567  18.3863973  49.3476963  61.4958565  17.0920323  50.1081133
  57.1241180   7.0301198  52.0445204  57.8756611   6.4865731  52.2810841
  56.6841547   7.2056054  52.8763056  22.7811937  13.6829042  69.2040491
  23.2024364  12.8264093  69.1319036  22.0000188  13.6125993  68.6553669
  46.3377237  58.2821226  18.9978659  45.7447863  58.1521988  18.2577443
  45.8313465  58.0059814  19.7617769  45.8544294  19.3344640  19.3825614
  45.5337398  19.9515580  20.0402737  45.0615696  18.9772557  18.9825547
   3.1816831  75.3635883  28.8302422   4.1182879  75.4298067  28.6441803
   3.1110647  75.5375338  29.7688508  11.3494194  62.0744181  39.4312644
  10.7576466  61.5278339  39.9482560  12.0413280  62.3240900  40.0437689
  20.6041622  77.6744604  48.2485151  21.1182976  76.9801617  48.6606359
  19.7879803  77.6968145  48.7480927  18.9888637   2.9111241  32.3159552
  19.4569205   2.7060556  31.5065718  19.3531273   2.3069905  32.9629230
  38.6193912   0.8470010  48.4675789  39.4365220   0.3959512  48.6799192
  37.9809694   0.1435041  48.3503437  47.9577581  22.2901868  46.6982460
  47.9760901  21.4699887  47.1913624  48.7549047  22.7479695  46.9651222
   4.9754325  54.0135384  54.5355034   5.6758457  53.4048176  54.7702503
   4.9844649  54.6694040  55.2326393   2.0014763  56.9954824  42.3502445
   1.5375194  56.3635063  42.8994083   2.1167918  56.5460682  41.5130091
   5.1444429  70.8260441  49.5063543   5.4497516  71.7269993  49.6126652
   5.8610129  70.3822899  49.0526581   4.7676960  45.9056854  26.7789078
   5.1266193  45.2995253  26.1308551   5.1549029  46.7520761  26.5554547
  65.2372400   2.6172875  27.5129151  64.5280639   2.3841237  26.9138098
  65.9254876   2.9647779  26.9456458  56.3929121  24.3780158   5.5243220
  56.1289382  24.9438546   4.7988047  56.5482688  24.9792788   6.2527289
  41.0710716  70.1445055  38.0209565  41.6362762  69.3730068  37.9814005
  41.4692259  70.7646799  37.4101424  35.9220314  74.3352461  28.1263065
  36.1696291  75.2581072  28.0693030  36.0186672  74.0057039  27.2328329
  28.2759505  22.0691823  61.0789871  27.8557733  21.3255929  60.6468344
  27.5494526  22.5830983  61.4315748  60.0242512  20.0225495  55.7836390
  59.3554084  20.6783341  55.9806633  59.5606224  19.3500089  55.2846622
  76.9164189  50.9643910  13.2261910  77.1697136  51.4254735  14.0258660
  77.6856705  50.4431698  12.9963745  13.8607419  75.5774260  54.4619274
  13.3031332  75.1869202  55.1348352  13.7533987  76.5212345  54.5799923
  64.3615961  60.7145309  15.9584069  63.5773468  61.1325550  16.3139856
  64.0265131  60.0258160  15.3842783  71.1603224  55.5949163  27.2538495
  71.9873571  55.6489038  27.7327323  71.3455915  55.0071764  26.5214086
  73.4339706   4.4555425  43.3408737  72.7746193   3.9506101  42.8649235
  74.2655699   4.0419911  43.1092596  15.9194772   7.8622006  49.2571831
  16.4357523   7.0587491  49.3215942  15.1989417   7.7340173  49.8741293
  42.5661755  76.8170595  68.4412050  41.7549181  76.4325380  68.7732315
  43.0901241  76.9843245  69.2246151  80.4223435  55.9124899  51.6617203
  79.8779421  55.1477575  51.8489027  80.8845525  55.6857300  50.8547688
  13.3337235  67.9812860  41.2127733  14.2903674  67.9524803  41.2280750
  13.1250036  68.6780739  40.5905581  34.6337724  68.5919333  43.8594532
  35.4100585  69.1142845  44.0613556  33.9757538  69.2339659  43.5929251
  57.5179855  14.2634725  43.4693336  56.9173090  14.9988889  43.5901165
  57.0868556  13.7059735  42.8216076  20.2366877  70.1161718  34.9986434
  20.7908583  70.1906013  35.7755518  20.2192926  70.9999037  34.6312952
  84.3277335  45.4742146  31.0324121  85.0891753  44.8977757  31.0969114
  83.6590763  45.0487280  31.5691566  66.1744110   0.4604386  29.0489936
  66.8840234   0.8008908  29.5937681  65.8136932   1.2335252  28.6148882
  55.3891950  57.8205750   9.9671234  55.0871685  58.5821030   9.4720711
  55.5387364  57.1473191   9.3033470   3.9463322   6.6690778  21.6585231
   4.2593758   6.2495278  22.4599051   3.7431233   7.5666665  21.9217372
  27.3499039  22.6888513  45.4849529  28.1751092  22.2188615  45.6048584
  27.2336462  23.1800222  46.2982607  73.6248206  74.9581766  38.4934258
  72.7433276  74.9421263  38.8661790  73.5222828  74.5810223  37.6196551
  72.6198992  50.0967000   2.3654427  72.8780862  50.1432202   1.4448942
  71.9222912  50.7464192   2.4516644  69.0606999  39.5384073  71.0999632
  69.0342998  39.8541236  70.1967192  68.9407360  38.5916114  71.0263538
  63.4082842  61.0941792  63.6671782  63.0899143  61.6314411  62.9417658
  62.8705406  61.3572645  64.4140720  80.2346026  69.3776798  34.4369364
  80.0789338  69.2874956  33.4967947  80.6561583  70.2321053  34.5290327
  53.7364757  43.0447838   3.2107557  53.7325248  42.5789807   2.3745550
  54.6640518  43.1446908   3.4248938   4.6599409  60.2800798  40.2451754
   5.3512847  60.5417347  40.8532953   4.6567455  60.9654140  39.5769358
  19.0621901  56.2283564  67.0876074  18.8564599  55.5712795  66.4226580
  19.9959314  56.1091805  67.2612572  81.4936649  43.2688761  41.6998386
  81.6026592  42.9551601  42.5975800  80.5645483  43.1370211  41.5111923
  79.8248228  12.9485009   1.7759957  80.2249726  12.8475735   2.6396670
  79.0272912  13.4521172   1.9389023  39.9162428  18.8710259  44.5892048
  39.4357638  19.5034169  45.1234865  39.3016974  18.6260079  43.8974428
  43.5830919  23.7279939  48.0159903  44.3466632  23.6768865  47.4410295
  43.8207225  23.1987809  48.7773609  40.6259541  16.7558621  51.0304689
  40.7847313  15.9836244  50.4876375  40.7197957  17.4946927  50.4291821
  16.8377626  54.8303032  48.1090879  17.3457801  54.6174526  48.8919306
  17.4836016  54.8516369  47.4029255  12.6268959  72.9903793  31.9654202
  13.2452369  73.4466648  32.5361109  11.9321311  73.6291599  31.8057442
   8.6353820   7.5187825  44.2711115   8.6371081   7.2022676  45.1744652
   8.4580653   8.4564160  44.3461847  20.8177328  74.6551800  15.4702783
  21.7185831  74.7949696  15.7621014  20.7719183  75.0890160  14.6182716
   8.8237661  58.0285406  56.1785078   8.4182382  57.1839285  55.9825230
   8.5869139  58.2023096  57.0895147  30.5632925  70.0719833  22.0021701
  29.6738935  69.7609234  22.1708131  30.4434395  70.9206867  21.5760612
   4.7652036  62.7166939  44.0372133   3.9700651  62.7356815  43.5046482
   4.5280001  62.1939993  44.8032141  16.5294218  63.5242081  42.7977037
  16.4859819  64.1039801  42.0373058  17.4371886  63.5865307  43.0948639
  51.7113440   4.3720864  46.4460087  51.2110750   3.9049386  45.7768822
  51.9441740   5.2040052  46.0337639  23.4560394  42.9055405  25.9632587
  24.0363955  43.2667303  25.2932119  23.4015393  41.9727707  25.7554030
  58.7505905  13.8849305  49.7960758  59.5486276  13.8140725  50.3198576
  58.5978333  12.9976510  49.4710779  65.9688847   7.4547910  31.6816425
  65.2921407   7.9805898  32.1079993  65.5347340   6.6269254  31.4757609
  34.5961974   9.7170400  40.7656860  34.9823604   9.6292352  41.6371202
  33.6948417   9.4127034  40.8713579   0.7457796  56.1746359  24.6396327
   0.5006500  57.0347881  24.2986250   0.2963684  55.5530214  24.0670466
  22.8366184  41.2319803  41.4014435  22.5654221  40.3141880  41.4199924
  23.4872890  41.2753487  40.7007456  35.4839540  80.5331421  24.7053218
  35.2147341  79.6167231  24.6425986  35.3089595  80.8942032  23.8362741
  52.6664423  80.4435539  20.7651353  52.7736759  81.3651657  20.5298328
  51.9323825  80.4370403  21.3794184  21.8057323  61.7853117  69.8807669
  22.5273895  61.1783695  70.0452757  21.8230844  62.3856831  70.6260777
  57.8953807  23.3124208  44.9546862  56.9730775  23.5637425  44.9054050
  57.8804199  22.4049043  45.2586746  34.8903410   5.0545072   5.0265491
  35.5236654   5.2293061   4.3304336  34.0472202   5.0041246   4.5761704
   9.0710551  47.0650148  37.1122932   9.7405803  46.8336868  37.7560759
   8.8900089  46.2464476  36.6503358  24.6052957  73.0241632  38.8914204
  24.0834975  73.2413006  38.1188869  24.0478778  73.2633162  39.6319079
  31.1055803  69.1019487  41.3039684  30.1539087  69.0649796  41.2081337
  31.2905741  70.0192642  41.5053129  23.1139588  62.4262857  11.5276539
  23.8406229  62.9906368  11.2636471  23.3788896  61.5492439  11.2504470
  45.3625791  18.1256246  55.8330822  46.1931293  17.6775216  55.6729984
  45.2984671  18.1777333  56.7867088  54.2073075  13.0436467  48.8039207
  53.2966225  13.0544995  49.0984869  54.7066895  13.3571195  49.5579672
  49.1060591  59.5114899  31.6982174  48.5638142  59.0650225  32.3485017
  49.6831369  60.0749445  32.2137117  18.1555521  79.9128914  43.6958551
  17.6128840  80.6608200  43.9455414  18.5002196  79.5798397  44.5244169
  68.6549234  65.0631094  24.4863749  69.3193268  65.7055902  24.7354078
  67.8359436  65.4199505  24.8301315  15.7460177  47.0611382  54.3772650
  16.5241671  46.9347620  54.9201679  15.4789352  46.1753893  54.1316032
  38.9037251  52.6134825  21.3635468  39.1294289  52.9071188  22.2461963
  38.0879641  52.1252441  21.4748335   7.9800391  69.8532438  51.9219971
   8.3022022  68.9520264  51.9377565   7.0613056  69.7837448  52.1814823
  39.0477769   1.2475633  43.4461594  38.6467950   2.1013307  43.2832670
  39.3548910   0.9592866  42.5866222  40.1208099   9.9638674  38.3482708
  40.0969347   9.0237973  38.1695713  40.2365324  10.3682540  37.4884381
   2.6402896  18.7262010  34.9922752   3.0814545  18.1175088  35.5848145
   3.2429783  18.8217496  34.2547989  81.0320124  53.9048550   2.3007549
  80.3540620  53.3195565   2.6384606  81.1069950  53.6752770   1.3745226
  16.4702702  52.4433231  62.9231882  16.6093814  51.9088030  63.7049627
  15.8388233  51.9466972  62.4027348  31.1153293  78.7384939  23.3482933
  30.6185937  78.1144476  23.8774920  32.0133853  78.6649132  23.6712694
  13.5657179  76.3461018  37.9137254  12.7481365  76.3503122  37.4159551
  13.9777637  75.5114746  37.6904631  79.5622426  61.8859386  35.1359105
  79.6641325  62.0123100  34.1925764  80.4239469  61.5934753  35.4328346
  82.9877745  53.0980587  42.0992899  83.4750604  53.6590481  41.4959049
  83.6538621  52.7456331  42.6895094  30.2369428  54.9476337  25.0966191
  30.8027124  55.4317665  24.4951630  29.3930864  54.9018240  24.6471334
  85.4359087  26.4073393  13.9174332  85.2296957  26.3895199  14.8519863
  85.8869800  27.2415469  13.7875618  10.0022678  10.3109883  20.5534363
  10.6300525  10.6557225  21.1884785   9.2287509  10.0950955  21.0742950
  39.7616982  76.4027309  11.7130423  39.4030881  75.8662319  11.0060763
  39.3388891  76.0696411  12.5045717  33.1236744  60.2566481   1.2602228
  33.0501175  59.5877075   0.5795307  33.5373020  59.8052025   1.9959818
  18.2546091  78.2775831  54.4305897  18.2419229  77.3240423  54.3479395
  17.9266202  78.5952950  53.5893297  16.6401284  12.2098016  39.5990944
  15.7617705  12.5869226  39.5490551  16.4917796  11.2688970  39.6936107
  77.8073954  39.0217614  63.6245394  78.1702828  39.7368360  64.1472387
  77.3898249  38.4452772  64.2644882  17.0790875  61.3788462  55.3366661
  16.9704401  60.5630827  54.8478413  17.4149799  62.0015001  54.6919107
  45.7754890  25.6908464  37.6675034  45.9668140  26.6106652  37.8507137
  45.6530480  25.2951860  38.5304594   1.6663973   8.9633607  54.3492460
   0.7780402   9.3181466  54.3835497   1.7802041   8.5208081  55.1903391
  22.9082227  61.8369198  41.0649586  22.4374819  62.2679472  40.3516197
  22.2501874  61.7205715  41.7502928  62.8111458  65.4787445  45.1866627
  63.4285736  66.1916924  45.0232029  63.3489561  64.6871376  45.1680088
   5.7047778  74.7114325  28.7311292   6.3394099  74.0748596  29.0601349
   5.5999899  74.4889927  27.8060484  59.9508715  66.1442041  16.5269804
  60.5904961  65.5064917  16.2100708  59.1148710  65.6788254  16.4995682
  42.0221023   5.9611939  58.2955503  41.1279242   6.0749005  58.6176491
  42.0947234   6.5783738  57.5675058  82.5557527  39.4128487  23.3388008
  83.4072908  39.0450404  23.1025185  82.3447284  39.0073416  24.1797890
  76.1211407  43.6015463  39.1296268  76.0077381  44.1429663  38.3484483
  76.5881156  44.1654921  39.7461772   3.7074238  74.4240379  43.2606125
   3.8299814  73.4756374  43.2188034   3.7326509  74.6278191  44.1955328
  76.0632174  39.4611405  45.7228613  76.8884842  39.0293073  45.5022335
  75.5134098  39.3365525  44.9492836  46.3179016  74.1445541  65.8554173
  46.8157101  74.9604273  65.9081030  45.4906654  74.3948650  65.4440069
  23.6224365  76.8013573  59.7148323  23.5052228  77.1377897  58.8264036
  24.4954753  76.4089251  59.7090960  44.8727512  66.4778090  49.2225456
  44.7007036  67.2472954  49.7652483  44.0491199  66.3215542  48.7605429
   6.9592461  77.3159096   1.0568298   7.5944910  76.6923688   1.4088310
   7.0094714  77.1991799   0.1081051  66.2613987  78.5496950  60.6060696
  66.3170337  78.6928988  59.6612787  65.8955407  77.6695299  60.6937742
  26.4959052  42.1369218  35.7839036  26.7300537  42.8529595  35.1934052
  26.6685717  41.3429689  35.2778721   9.2718279  60.4627895  40.9552431
   8.7459910  59.6882296  41.1547089   8.7550277  61.1957693  41.2897444
   3.2518975   9.1609048  58.3388853   2.8352253   9.3968724  59.1677046
   2.9991047   9.8601674  57.7361012  56.3816492   6.0593270  59.3690395
  55.4279296   6.1237763  59.3190956  56.6012208   6.4176988  60.2290297
  68.2011389  69.2059040  24.0723729  67.7872764  69.6194077  23.3147669
  68.6492872  68.4405136  23.7124205  19.6868646  53.9593172  38.2046413
  19.9870121  53.6362076  37.3550868  19.1278100  53.2598829  38.5430002
  10.5438113  54.6031713  55.4733515  10.0926042  55.2911901  55.9625053
  10.3388894  53.7978268  55.9483910  23.6014557  66.9141769  44.6114731
  24.3945909  66.5797043  45.0301552  23.2140946  66.1489868  44.1864204
  14.2742372  54.3914318  23.2974172  13.8905180  55.2661371  23.3597255
  14.6486008  54.3562603  22.4171638  59.6742980   5.6349515  51.2818718
  59.9496691   4.9951219  50.6253529  60.1879303   6.4179181  51.0834503
   0.3485020  23.6058307  34.7166562  -0.1710122  23.8418508  33.9481330
   0.9004456  22.8823709  34.4196820  36.7437100  66.5431643  43.6857176
  36.6980052  65.6197119  43.4379816  35.9428787  66.9269085  43.3284473
  28.0177865  51.1805794  33.0751194  28.3507189  51.8573640  33.6644901
  28.2960066  51.4635346  32.2040524   7.4148935  64.6627617  46.6734743
   7.2411215  64.2999029  45.8049297   8.3689713  64.7235394  46.7211580
  73.3288252  63.4617472  41.4944696  74.0816843  63.0317926  41.0887957
  72.5689470  63.0741405  41.0602140  16.5268826  76.6748524  64.1990900
  15.6269217  77.0005322  64.2145395  16.9666350  77.1527386  64.9022818
   8.1767219  64.8733616  61.1940002   7.9691768  65.3525114  60.3917742
   9.1295397  64.9290848  61.2665606  40.6575911  10.7860993  35.6740785
  41.2428646  11.2857579  35.1048446  39.8881797  10.6111669  35.1321936
  74.6784060  19.5811223  33.0722833  74.4601480  20.4504537  32.7363276
  74.9837677  19.7392797  33.9655757  18.9725435  68.3463573  63.2754040
  19.1809976  68.2971287  62.3424768  19.1994381  69.2422771  63.5245657
   8.1170779  62.9211569  39.8078775   8.7197661  63.3747196  39.2185712
   7.9988682  62.0578957  39.4116044  16.2457621  79.9740171  51.6574526
  16.9603944  80.5415726  51.9462681  16.1064517  80.2119446  50.7408190
  54.4407551  17.3846005  31.6014671  54.2775623  17.8497075  30.7809329
  53.8189737  17.7664613  32.2209835  84.2062777  70.6580067  39.2891812
  84.0955692  71.1569595  40.0985146  83.6572646  69.8830462  39.4085717
  44.2378537  78.3999871   0.9090294  43.6956994  78.8947915   1.5234150
  44.1257076  78.8520859   0.0728096  46.3374233  52.6452160  44.8995304
  45.7745171  51.9164276  45.1607418  46.8920946  52.8050518  45.6630898
  21.6659069  67.7525425  68.9354944  21.6639209  68.5908556  68.4734774
  20.7398558  67.5318336  69.0352201  69.0626947  16.5068387  51.4318800
  68.8114922  15.8314656  50.8018064  68.2934181  16.6097879  51.9920969
  48.3434216   4.9810266  44.2386675  48.7723212   5.5256986  43.5786629
  47.7690784   4.4033288  43.7360477  58.1216717  65.5191374  60.0620461
  57.7566910  65.3307867  60.9266520  58.1795120  66.4740276  60.0293207
  49.8986673  58.0104208  65.3118610  49.9551057  58.1876564  66.2508154
  49.7806167  58.8721180  64.9121380  15.9806621  65.0238848  35.9747672
  16.2979066  64.5599651  36.7495990  15.0285447  64.9338818  36.0148263
  23.7225533  56.1046028  47.0442533  24.2954445  56.7423582  47.4700403
  24.3145108  55.4170084  46.7392397  67.6320331  15.8539342  43.6893463
  66.9367592  15.2502202  43.4279156  67.8868358  15.5613183  44.5643759
   1.0233872   1.6806554   8.1677902   1.6727107   1.2198686   8.6990947
   0.4502146   2.1059560   8.8056231  26.2854052  59.2326880  24.3130636
  25.6023812  59.8684263  24.5264745  27.0594382  59.7651672  24.1298580
  36.4447618  72.0138502  48.7463236  36.5943503  72.0532084  47.8017044
  35.5294895  71.7473984  48.8329840  45.1625633  38.0522490   9.2398226
  44.2933750  37.8011847   8.9272445  45.6232166  38.3481526   8.4546643
   6.1358255  58.1101036  66.3443708   5.2583438  57.7280712  66.3267756
   6.7208517  57.3612022  66.4589214  28.4018183  67.8742933  43.4022713
  27.6958418  68.2286263  43.9428949  28.9190412  68.6398125  43.1518888
  18.1587303  74.7287226  52.7094984  18.5969102  75.4077101  52.1964598
  17.2586250  75.0411987  52.8011513   8.3945600   5.8191155  51.9319582
   7.7030842   5.2369641  52.2469187   8.9802174   5.2482270  51.4346457
  10.5464661  57.9525089  63.8020372   9.5970190  57.8729010  63.8939285
  10.8788967  57.0726299  63.9796305  60.1500105  52.0779657  56.5115404
  60.2055835  52.8968287  56.0189915  59.6977496  52.3155785  57.3210049
  18.3254433  67.7959013  45.2764034  17.7762771  68.5647297  45.1229286
  19.1180289  68.1451845  45.6838846  64.8254442  49.9374866  55.3389215
  64.1859102  50.6093788  55.5751181  65.2484679  50.2762794  54.5499325
  44.5127146  11.6592740  49.2499208  44.1920249  11.6125917  50.1505947
  44.1542522  10.8788060  48.8273001  57.7609746  26.5357923  40.8907366
  58.3636896  27.2485875  41.1025953  57.9804484  26.2961816  39.9903727
  26.5336418  80.3525543  14.0151930  26.2281156  79.6360826  14.5715642
  26.5971565  79.9669361  13.1414127  34.5323853  12.0515012  48.8640451
  34.6198927  11.7988347  49.7831392  35.0501983  11.4029931  48.3870220
  82.1552860  46.6570616  57.4809265  82.2475892  47.6066875  57.4039507
  81.5325134  46.5342522  58.1973791  84.9941894  52.0469379  55.4090643
  84.4686129  52.0311451  56.2089109  85.6500016  51.3620758  55.5398464
  18.2920325  69.3689108  41.6747952  18.0914581  68.4349298  41.6140890
  17.5618553  69.7389364  42.1709394  51.3881247  13.1668614  30.6919384
  52.2760717  13.5102986  30.7911396  51.1202042  12.9351567  31.5811849
  53.7585847   7.2222661  36.5861559  53.2413690   6.4380979  36.4023018
  53.2808797   7.9308175  36.1549044  20.5526853  67.3606586  30.5594158
  21.0113120  67.9415226  31.1664486  20.3268957  67.9205322  29.8165894
   9.7804904  71.6946077  50.8143234   9.1469955  71.0092592  51.0269642
   9.4049984  72.4920273  51.1876249  24.9504519  66.3738537  37.3453617
  24.3415785  65.6521559  37.1883464  24.5275331  67.1348667  36.9475794
   0.3179639   9.6890306  62.5030518  -0.5832727   9.9821900  62.6374292
   0.6297343   9.4636869  63.3795547  63.4740400  62.5994158  39.4635606
  64.2470789  63.1514311  39.3455720  63.8270044  61.7253017  39.6296096
  81.9642570  74.8673964  44.8530340  81.1708325  74.9063206  44.3189955
  81.6916495  75.1925564  45.7110453  11.8851149  57.7819204  31.1784220
  11.1540592  57.8409147  31.7934918  11.9374537  58.6526823  30.7843733
  76.4705698   2.6127671  11.0703349  76.3598387   3.5624074  11.0239887
  76.9910042   2.3942994  10.2972567  62.7118206  56.6925526  20.6690049
  62.5710106  56.1192799  21.4225054  62.1902990  57.4720621  20.8603454
  15.2256560  53.0595779  49.8981285  16.0485339  52.6671553  50.1898670
  15.4899216  53.7279510  49.2659330  72.9698936   1.4615678  63.9676237
  73.6610786   1.9456719  63.5158062  73.0194751   1.7636441  64.8745537
  79.7557649  50.5423424  12.1167530  80.4535970  50.4872391  12.7696194
  80.1625880  50.2390168  11.3051380  86.9918787  57.5470638   4.7581372
  86.9201549  58.0601406   5.5630219  86.1050022  57.2231674   4.6007377
  65.6327955   7.3437451  13.0363023  64.8706691   7.5166654  13.5890210
  65.9105246   6.4609193  13.2806551  63.2026147  60.3462934  42.6820946
  63.5455274  59.8477697  41.9403934  62.7213096  59.7022820  43.2015371
  37.0334411  81.0278130  18.5077512  37.6232052  81.3690567  19.1800308
  36.1830139  80.9682369  18.9430177  19.6582024   5.1213597  37.6498246
  19.7781651   6.0697125  37.6994729  20.2170699   4.8469781  36.9227672
  63.0890989  67.4436378  68.6852884  62.7745390  68.1747055  68.1534767
  63.6321497  66.9292307  68.0880356  80.7135908  14.9335145  21.5454388
  81.2375156  15.6509542  21.1890507  80.8668367  14.9710416  22.4895477
  83.9045422   8.6817025  56.7724752  83.5169260   9.0776681  57.5529814
  83.2102577   8.1283807  56.4146614  26.4496922  63.4157181  27.3271608
  25.8936262  64.1407871  27.6122832  26.3157082  63.3690166  26.3805342
  57.3749964  23.7946843  31.6704178  57.3300330  23.4172200  30.7919359
  57.3003070  23.0429315  32.2582293  43.7741451   7.7368402  13.8838577
  43.1357495   7.0385408  14.0289688  44.3901472   7.3701810  13.2495570
  12.6255023  69.9924707  56.9628525  11.7750096  69.5601654  56.8853569
  13.2502782  69.2748833  57.0675039  24.9772549  70.7308292  66.5286303
  25.4805422  71.2142372  65.8734560  24.0721464  71.0090017  66.3885212
  25.4098463  68.8788652  55.2486849  25.3781486  69.1862917  54.3427515
  26.3193917  69.0125704  55.5152941  37.5130057  80.1519012  50.0551033
  37.9139733  79.5021629  49.4777870  37.0894337  80.7713509  49.4608736
  47.3719597  73.4795713  40.0509834  48.2154608  73.0503845  40.1943064
  46.7228174  72.8110313  40.2698421  73.3856718   0.5658101  56.1579466
  73.9056913   1.3653707  56.0772562  72.9087297   0.6723260  56.9809961
  10.6558168  70.3022099  37.3665786   9.9045277  70.8825302  37.2440004
  10.3386521  69.6220446  37.9607272   3.7233298   8.3301019  47.0849037
   3.2197182   7.5361680  47.2645521   4.3288891   8.0770730  46.3881159
  63.5307434  20.8925793  17.8316654  63.8878885  20.0244687  17.6444115
  62.7819326  20.9759591  17.2412743  49.9387646  68.3632660  40.6944036
  50.6907415  68.5257053  40.1248646  50.2953291  68.4112835  41.5814114
  66.3188168  77.4584077  20.8637585  65.9872111  78.1031201  21.4887585
  66.4454886  76.6644356  21.3831677   9.7665411  68.9995956  55.5898905
   9.3115097  69.7789669  55.2709007   9.1317648  68.2911444  55.4831696
  74.7410056  51.1761544   3.7484421  74.2153641  50.4441140   3.4258761
  74.1309198  51.6974995   4.2701973  31.0336304  75.7338572  54.0746689
  31.4903307  76.5584135  53.9080429  30.1424456  75.9960604  54.3054676
  49.6566820  77.5899506  52.4589014  49.4828081  77.5860882  51.5176344
  49.7904301  78.5130358  52.6739693  24.8705840  61.3395023  47.4158955
  24.6211171  61.4304018  48.3355331  25.7378531  61.7409897  47.3621750
  21.7389584  52.3213911  47.4765301  21.8721151  53.0558634  48.0757380
  20.9131432  51.9284344  47.7590990  69.4032757   3.4198903   5.7419443
  69.1039936   3.3243321   6.6461182  69.7632305   4.3058919   5.7011712
  66.4272451  73.7651205   1.4551371  66.6486120  74.4741631   2.0588672
  66.2136745  74.2078257   0.6337769  79.4087800  67.5458787  10.5774941
  79.3367228  66.5920613  10.5417599  80.0481328  67.7119897  11.2702145
  60.9243600   3.7320088  57.2880459  60.1620547   3.2015847  57.0561647
  60.7953040   4.5554494  56.8173885   9.1986841  71.1176157  33.8043928
  10.1512611  71.0280418  33.8327527   8.9660418  71.4744377  34.6615911
   3.8568204  10.9810781  10.5198205   4.6316950  11.2864350  10.9915745
   3.9050334  11.4199876   9.6705461  52.8998177  25.1308869  32.5037098
  53.8365857  25.2929925  32.3922563  52.6417605  24.6621656  31.7100239
  13.2398450  74.1823387  40.9788418  13.9516413  73.5661173  41.1516047
  12.7219963  73.7634706  40.2913713  55.1561896  22.5028180   8.3879828
  54.4240992  23.1194257   8.3796996  55.8101837  22.8997563   7.8126889
  50.6657076  59.8193216  17.8363085  49.7307396  59.9631739  17.6901031
  50.7027960  59.0670776  18.4270573   1.8085187  15.4590081  28.5456848
   1.5913718  14.6017884  28.1792879   1.0482590  15.6911038  29.0789485
  83.0302691  70.3958607  45.6586456  83.1317362  71.1360931  46.2569714
  83.6685103  69.7514153  45.9645319  69.1087524  30.6528138   9.9934590
  69.4505922  31.0567140  10.7911122  69.0543072  31.3726472   9.3648839
  11.5765762  73.2691383  68.8584995  11.9737732  73.6930275  69.6192741
  11.6118062  73.9323711  68.1692123  39.5654798  70.4320145   5.9694421
  40.0578976  69.6138525   6.0355353  39.8633981  70.8252668   5.1491815
  30.8727884  50.1419687  18.1481934  30.2182460  50.2881813  18.8311493
  31.6374946  49.8077202  18.6169517  44.4906227  16.9707822  53.5951853
  43.5744004  17.2371244  53.5188198  44.7604005  17.2854375  54.4579983
  16.8901594  56.4174153  60.0428389  16.1728962  56.0479809  60.5579053
  16.4596279  56.8297364  59.2939316   8.3069620  64.0767739   0.1933636
   8.2057581  63.1388734   0.0311007   8.7073860  64.1278527   1.0612835
  67.5345151   3.1670331  20.9786749  68.0265467   2.9159783  20.1969385
  66.6190807   3.1562947  20.6992126  26.2724039  45.3510173  70.0786217
  25.6612053  46.0616305  69.8844629  26.8831256  45.7269027  70.7126255
  66.0644817  13.9665103  58.7460661  65.2964734  13.4004414  58.6688614
  65.7140350  14.8552060  58.6857462  34.6755835  54.7457995  65.9495543
  34.2327866  54.8650064  66.7897640  35.5956682  54.6168544  66.1798786
   0.2770456  27.3181224  29.3810582   1.1359090  27.4707007  29.7751474
   0.3044022  27.7986240  28.5536528  64.1353130   6.3486886  63.4227514
  64.0476178   6.9554627  64.1578484  63.8406157   5.5069852  63.7704897
   6.0861313  40.8313990  36.6200709   5.1914668  41.1699438  36.6546202
   6.2834209  40.7709646  35.6853747  17.2671604   7.9952270   8.4285629
  16.5158010   8.1025809   9.0118003  17.5889754   7.1127111   8.6124992
  51.0792326   8.0515593   4.0422511  50.3107309   8.3716577   3.5698399
  50.8167600   8.0635834   4.9626827  54.0348458  11.4509368  36.8052745
  53.9851498  11.3725317  37.7579641  54.0676593  12.3938715  36.6439438
   6.9025928  34.3132925  36.2551737   6.5875429  33.7503910  35.5479836
   6.4299113  34.0108848  37.0306444  79.3199139  21.4875770  30.3576303
  79.9307316  21.4738226  31.0944772  78.6283749  20.8750725  30.6083179
  64.6401238  66.7690611  62.8899431  65.4293393  66.9284058  63.4076118
  64.6317648  65.8219862  62.7513409  13.2269979  28.4490967  28.7061763
  13.0350864  29.3005896  29.0990663  14.1751909  28.3526492  28.7948322
  86.1011122  25.0203156  11.5682721  85.8772896  25.4688478  12.3837197
  85.5646055  25.4511738  10.9028745  81.9947254  37.4013019  25.0244308
  81.2083554  37.1165442  25.4900122  82.6518747  37.5144577  25.7111478
  56.8455139  81.5786280  58.3960342  56.0461734  81.0520963  58.4031725
  57.2829889  81.3610603  59.2191458  68.1332965  75.6994779  40.4268646
  68.6744709  76.0417993  39.7153997  67.2818769  75.5341441  40.0219154
  36.4843042  60.2234388   7.1973383  37.2225101  60.3179265   6.5953755
  35.9100277  59.5854331   6.7737967  28.2697272  16.6342878  30.8047318
  27.6569319  16.3662434  31.4894700  28.9759350  17.0771146  31.2752724
  22.7645969  35.5608916  -0.3213382  23.4753966  35.1110768   0.1354571
  22.2735214  35.9998775   0.3731902  15.7241964  29.6174359  37.2272205
  16.3372850  28.9425302  36.9359183  14.9616408  29.5097756  36.6587567
  25.0121617  27.4022865  39.0673375  25.3019452  27.1154428  38.2013226
  24.8310399  26.5901423  39.5404625  13.1461966  34.3537307  29.8029995
  13.3534479  33.5198283  30.2247643  12.9344428  34.9424314  30.5274463
   1.0742290  78.5359297  50.1210928   1.1072309  79.4235218  50.4779148
   1.9188030  78.4213764  49.6854258   0.4954103  50.9660816  42.5282764
   1.0606290  50.5823374  43.1987238   1.0424039  50.9979248  41.7434120
   8.2921696  13.9816177  32.2947860   8.3159673  14.3713796  33.1687140
   7.5868905  13.3360124  32.3395896   3.5396886  13.0873168  33.5207939
   3.6789387  12.8459728  34.4365430   2.7119675  13.5680509  33.5230017
  25.2095437  33.9883041   0.1824946  25.7379127  34.6473169  -0.2677958
  25.1154256  34.3247867   1.0736481   7.1382990  56.6430523  43.6390553
   7.8594127  56.0160377  43.6945568   7.0182815  56.9502022  44.5376597
  82.0615139  26.4892435  39.4515014  81.4016407  27.0905375  39.7968221
  82.8903311  26.8170905  39.8005128  72.1913707  15.1761913  35.7990599
  72.6193988  14.5764279  35.1880717  71.3927793  14.7193754  36.0632586
   2.5006279  27.3361945  40.9376621   3.4029752  27.4250531  40.6308985
   2.5835270  27.1234012  41.8672228  16.8498456  16.3334489  55.6644964
  16.2668240  16.8111908  55.0745153  16.4525926  16.4366686  56.5292358
  22.2849941  29.8740482  34.4341445  22.3882723  30.5786180  33.7944984
  22.6335359  29.0984797  33.9945507  12.3977590  19.1248560  28.1125355
  12.2960925  18.7073576  28.9678669  11.5070999  19.1821420  27.7665925
  69.2237146  80.2054519  37.6552677  68.8446600  79.3320448  37.5567269
  69.7320015  80.1560082  38.4648538  79.1340708  26.7269754  66.5590048
  80.0684171  26.6131544  66.3850117  78.7046164  26.0918117  65.9859705
  63.3137551  48.2995989  65.6443946  63.1236306  47.5480654  65.0828944
  62.4982205  48.8005354  65.6583635  66.4732910  63.1676305  10.1028049
  65.9939856  63.8213302  10.6118977  67.2208370  63.6451555   9.7431147
   3.9822441  12.7658868   8.4322423   3.9432725  13.4282160   7.7422899
   4.4320026  13.2008314   9.1566539   5.1656586  30.8347225  16.3970327
   5.4781020  31.7167401  16.5986598   5.0346255  30.4256654  17.2524476
  69.2541503  20.1564646  34.5694494  69.0946173  20.9416389  35.0931716
  68.6711323  19.4961596  34.9440408  14.0850759   8.6182040  42.5259161
  14.4664598   9.4910890  42.6199913  13.9435792   8.5188454  41.5844631
  80.9878593  32.6051259  19.3403256  80.1403403  32.5032878  18.9072311
  80.7816535  32.5973940  20.2750182  11.4648116  46.5294218  39.0295243
  12.3505211  46.4850616  38.6692715  11.4999807  47.2450352  39.6642637
   0.5925929  60.8206654  39.7164917   1.0967915  60.9047174  40.5257845
   0.2657721  61.7038631  39.5450902  78.6451214  46.4793921  34.7287416
  78.9998280  45.9293604  34.0302539  79.2821615  46.4047289  35.4392600
   5.5644459  56.3902187  32.1895981   6.2859792  56.3063049  31.5662336
   4.8902884  56.8735695  31.7119861  62.7269356  75.9945507  23.6508775
  63.2096655  76.6549767  24.1479087  61.8259851  76.3174833  23.6355495
  28.8657737  33.6758113  34.7462082  29.5187449  33.1520200  34.2819834
  28.1765127  33.0520415  34.9743748   7.3626065  10.8490932  26.8774748
   7.0657504   9.9458098  26.7670751   7.1818250  11.0500884  27.7957058
  39.9009347  14.4152737  49.8884869  38.9442039  14.4138515  49.9184036
  40.1564169  13.6210132  50.3576469  78.1874638  45.2105761  37.4270535
  78.9133745  45.7827187  37.1781802  78.4755569  44.3338299  37.1729779
  27.0093632   2.0015733  26.5239358  26.7552686   2.2391340  25.6321788
  26.2878323   1.4589709  26.8420672   9.4526827  35.8488536  39.6758342
   9.8021263  35.2808356  38.9891911  10.0778449  36.5716815  39.7299242
  40.7062633  79.7263505   8.8564628  40.1247997  79.7140720   9.6167135
  41.5551562  79.4473728   9.1996580  65.2594597  29.2035748  66.8314133
  64.9953801  29.1071869  65.9164254  65.9434337  29.8729826  66.8140520
  85.5900304  21.1070824  25.6452680  86.2987159  20.7836795  26.2015128
  84.9420542  21.4523387  26.2594008  63.7168271  64.6576978   6.1155617
  63.8367523  64.6976305   7.0643795  63.0672742  65.3351594   5.9275222
   9.3955547  53.5461283  63.2174492   8.6618525  53.8001680  62.6576471
   9.7193503  52.7315474  62.8329468  23.1206639   5.2980210  67.3349313
  23.2860429   4.5686222  67.9323093  22.1668298   5.3402115  67.2667302
  81.8560483  26.4997101  26.1577272  81.1900991  27.1565700  25.9545588
  82.3152991  26.3601375  25.3295732  52.6951932  58.5900879  31.6521859
  53.5901665  58.8693428  31.4591241  52.3261523  59.3077374  32.1669817
  -0.1614156  17.6477480  40.3209257   0.5527740  18.0449665  40.8193064
  -0.2421285  16.7643869  40.6806326   5.7797503  18.5022855  53.3095980
   5.7458305  18.5024965  52.3530006   6.4063948  17.8121161  53.5268879
  10.5907798  38.6038589  31.6524744  10.3222024  39.3116951  31.0667539
  10.1582348  38.8029528  32.4828339   7.6952618  31.3749385  58.6282825
   8.4629261  30.8869386  58.9262390   8.0396897  31.9928336  57.9834557
  64.2661656  78.9319889  33.6857128  64.1817916  78.0458189  34.0375876
  63.5389883  79.4155581  34.0776372  84.7516438  17.7776957  34.2219925
  84.4524024  18.2906079  34.9727297  84.3174314  16.9305658  34.3223023
   9.6127337  51.0399675  62.1270704   9.1960889  51.1256933  61.2695837
   9.2946571  50.2029133  62.4653006  22.9667735  45.1471901  61.0130644
  22.8988957  44.7212648  60.1585388  23.8790798  45.0189209  61.2728214
  29.7635412  27.1266532  25.8749700  29.0071011  26.7720175  26.3421583
  29.6630836  26.8064523  24.9785256  75.0493037  40.7106638  61.8642378
  75.8400952  40.7962751  62.3967361  75.3713261  40.4828215  60.9921026
   5.1125677  76.3926924  48.0054379   5.9246834  76.8708158  48.1730652
   4.9614985  75.8893151  48.8054514  33.0514666  64.6958353  66.5179892
  33.9605859  64.7919323  66.8017135  32.9625442  63.7657716  66.3098861
  67.7668213  56.8335104   3.3777356  68.6920595  56.7978239   3.1350580
  67.2983944  56.6488361   2.5636691  21.4698830  66.0255506  65.1107751
  20.7094392  65.8185890  64.5675217  21.1727908  66.7374995  65.6774299
  34.6607113  12.0068729  56.5430450  34.1934276  11.2543046  56.9057035
  33.9692497  12.5894141  56.2287903  25.7268977  59.3440390  29.9807048
  25.4500484  60.1236153  29.4991970  25.7636094  58.6539268  29.3184137
   8.5399723  27.4996281  65.1771259   8.8259107  28.4071326  65.0726938
   8.2474804  27.4438453  66.0868359  83.7634825  26.6926742  61.1852694
  83.5077994  26.9578886  62.0687389  83.1949502  25.9492683  60.9843969
   5.1448673  42.2297144   7.9009461   5.1840442  41.9453812   6.9877911
   4.5041889  41.6454744   8.3064407   4.6945581  44.8825121  10.5701733
   3.7575364  44.9942541  10.4097474   5.0995803  44.9919701   9.7098196
   0.1318656  48.2719803  29.2033076   0.1275420  47.3431730  28.9719391
   0.4710393  48.7114763  28.4235430  18.7173367  53.9002943  28.7170935
  19.3836546  54.0563440  28.0478406  19.1726708  53.4040737  29.3972898
   3.6360854  70.4340363  40.2114010   3.6046767  71.3530397  40.4772663
   4.2106795  70.0182486  40.8542013  85.5401048  64.7025919  48.9860344
  86.0859162  65.4587793  48.7703991  85.2511104  64.8641157  49.8841572
  67.4968016  21.4753532  24.7874832  67.1446621  21.4928985  23.8975835
  67.2353410  22.3151469  25.1651311  86.0769477  63.8378811  20.3072929
  85.1663499  63.9895535  20.5603528  86.0660604  63.8575697  19.3503571
  19.3681550  42.1864939  63.5227585  18.5519969  42.2843027  64.0132189
  19.9922860  41.8434858  64.1623163  22.5867009  50.6619120  59.5265865
  21.8809342  50.4840422  60.1482677  23.2547092  50.0068331  59.7287464
  75.0057828  66.8855572  12.4076676  74.4342183  66.9484997  11.6424322
  75.4648446  67.7250957  12.4334419  21.7509174  26.0719132  43.9332581
  22.1011806  26.7098856  43.3115387  22.4827886  25.4799151  44.1068554
  22.5250816  58.1510162  45.3309250  22.9571819  57.5900650  45.9750128
  22.7765965  57.7815628  44.4844770  18.1916132  81.2981727  68.8529877
  17.7456620  82.0904567  68.5535839  18.7198356  81.5873029  69.5970420
  19.7854495  44.7947598  30.0843501  19.0713954  44.3247223  29.6537423
  19.3934453  45.1453161  30.8841467   6.1399972  32.8484416  24.2266321
   7.0160687  33.2332778  24.2517614   5.7510561  33.1906772  23.4217548
  12.3994958  73.9077377  23.3858252  13.0369866  74.6203089  23.3401799
  12.3550355  73.6853456  24.3157697   5.3689015  20.7164788  35.6839728
   6.3239413  20.7674479  35.7231236   5.1402479  20.0254130  36.3055658
  76.7252015  56.0443354  31.1825538  77.5635546  56.3379717  31.5391707
  76.1613702  55.9421635  31.9492888  26.7239857  42.7601433  45.1579142
  26.0919428  42.4492693  44.5097542  26.5756059  43.7046814  45.2032900
  21.7611003  27.5747347  37.9302192  22.0071888  27.3233867  38.8204432
  22.5951123  27.6975346  37.4768114   7.4846298  39.0361524   5.3000039
   7.1730691  38.1837773   4.9956661   8.3403593  39.1408396   4.8840725
  49.3866130   4.5531008   1.7031302  50.2486869   4.1924546   1.4957775
  49.3294730   5.3528330   1.1802591  86.4187442  45.9265995  54.3420172
  86.3279999  46.4482737  53.5446119  86.5386750  46.5723467  55.0383329
  18.3262956  41.7670250  12.2674918  18.7348759  41.9436169  13.1149054
  19.0599251  41.5764046  11.6829538  69.0586709  16.7160583  41.4744473
  68.9875912  16.3907576  42.3718643  69.9764585  16.9726527  41.3846827
  16.5597582  34.2031384  28.6762595  16.2653446  34.9663210  29.1733575
  16.0027909  34.1949010  27.8978324   6.5378457  26.3396406  23.4396911
   7.2167993  26.9656825  23.6913371   5.7911992  26.8837929  23.1893969
  25.2877545  59.2213726   9.9301726  25.2237511  59.0068483   8.9995199
  26.0649371  58.7508392  10.2315307  10.2211316  55.0261546  33.9154792
  10.4798277  55.7118154  33.2997060   9.5241530  55.4235745  34.4375062
  10.6261504   1.0527202  38.2031512  11.4154410   1.0767429  38.7441468
  10.5984628   0.1597954  37.8594208  79.3196642  42.2742796   1.7989287
  79.9226873  41.5792656   2.0626464  79.8009103  43.0848122   1.9652800
  59.9287024  49.1824361  60.5486260  59.5536223  49.5684823  59.7570978
  60.8090725  49.5542964  60.6024550  25.1108718  35.7381320  65.9473896
  24.4266963  35.1988316  65.5507898  25.6223941  35.1255989  66.4759541
  73.0660505  75.3366584  35.2871585  73.9589519  75.0486518  35.4769254
  73.1147320  75.7013679  34.4035029   3.9843050  46.9379282  29.4835949
   3.1808999  47.4431467  29.3589830   4.2725283  46.7236376  28.5963297
  16.0809577  25.7799721  37.9112887  16.4404225  25.7849693  38.7984157
  16.1025620  24.8595810  37.6492906  19.7637916  35.9859776  26.0256624
  19.1688967  36.0906982  25.2831221  20.4422188  35.3906822  25.7069278
  26.2185717  32.7722383   8.0293119  26.1769819  33.7285185   8.0348504
  27.0840669  32.5680852   8.3835292   0.7268073  57.6844692  29.7438097
   0.4832916  57.6470232  28.8188601   0.1859435  58.3864403  30.1056504
  76.1744701   4.7092599  46.2064314  75.6726372   5.0079626  45.4480314
  75.7381808   3.9022410  46.4795685  71.0705256   2.4617431  49.6060181
  71.4002203   1.7860118  49.0136337  70.1377796   2.5258240  49.4008112
   1.9206661  13.9363098  38.4015799   1.6360144  13.5057473  39.2076945
   1.3320196  13.5962856  37.7277017   5.7353252  57.1103621  15.2965295
   5.6083190  56.1857653  15.5091822   4.8487452  57.4572325  15.1970899
  73.8803040  39.0629625  27.7644658  74.5300626  38.5515594  27.2822690
  73.9750158  39.9525595  27.4240589  64.0449356  40.6423283  63.6080217
  63.1966090  40.2158737  63.7293243  63.8309502  41.5634727  63.4599066
  38.6813506  61.6206338  66.6824789  39.0237179  60.7427635  66.8508805
  37.7709856  61.4771416  66.4238723  13.3473229  40.4657078  46.4982891
  12.5299084  40.7685041  46.1028433  13.2890761  39.5107865  46.4672565
   6.3490790  27.6918435  34.5048213   6.9183582  27.8386664  35.2601981
   6.7317307  26.9356179  34.0599251  10.5135906  27.1439791   8.7810940
  10.8704209  27.7514887   9.4290400  10.7739627  27.5135446   7.9373759
   7.7588600  26.3010955  12.1304131   8.3063263  27.0812631  12.2190118
   8.1300008  25.8316350  11.3833570  62.0165562  29.6706581  60.8962774
  62.9323172  29.4737458  61.0933590  61.8550419  29.2423964  60.0556040
  83.9249880  76.2276346  59.4499874  84.3025071  75.3528024  59.5415306
  84.1329081  76.6657735  60.2752352  75.6176896   9.5621420  67.9420887
  75.4210539   9.9822213  67.1047713  76.1462612   8.7989546  67.7088754
  18.9207396  63.7616303  50.0524579  18.2045820  63.9895894  50.6452356
  18.6744752  64.1568854  49.2161809  86.4163227  28.9369774  56.9767380
  86.1166071  28.1069756  57.3475456  86.0662973  29.6036267  57.5677538
  28.7541366  44.4927311  31.2865400  29.4620538  43.8487339  31.2677097
  28.1020904  44.1498327  30.6754065  20.8799958  23.9094520  48.7148905
  20.2101016  23.4016871  48.2570124  20.5417585  24.0042663  49.6053028
   9.0966713  79.3335629  40.9047270   8.4923941  79.2905664  40.1636219
   9.9636108  79.2261791  40.5134249  23.9224458  46.1402130  58.4263039
  24.3803239  46.5196085  57.6762104  23.3488965  45.4752016  58.0454779
  82.6367941  65.3832674   3.5128263  82.3670419  65.7445097   4.3572029
  83.4616869  65.8267641   3.3151031  17.8977084  69.4135618  12.5318182
  18.7297344  69.5279360  12.0725977  18.1346238  68.9824200  13.3529258
  13.7808812  36.2326908  10.8578062  12.8637159  36.2326479  10.5838740
  13.9108610  37.0917892  11.2594116  25.7352376  39.3081117  36.2003064
  26.1962652  39.0346718  36.9933486  24.8223090  39.3990564  36.4732957
  75.6830346  45.9675503  37.3627806  76.5890133  45.7132149  37.1874261
  75.7152509  46.3929415  38.2196546  85.3658152  37.4998307  25.8840418
  84.7018959  37.1115613  26.4538574  86.0162922  37.8614378  26.4859986
  43.9698505  35.4698300  21.5327907  44.0844440  35.2064347  20.6197071
  44.8341513  35.3510237  21.9266200  23.8879800  35.3661394  20.1447749
  23.4655499  34.6575809  20.6302953  23.3600855  36.1397862  20.3423262
  37.0859192   0.2943563  45.2645016  36.3574199   0.7796907  44.8772478
  37.8571527   0.5971765  44.7851992  25.5485845  13.8608289  30.6504369
  25.7968664  14.0856898  31.5471101  25.2535486  14.6877253  30.2690887
  40.1835299  36.4507127  58.7980747  39.3787169  36.3311124  59.3022633
  40.3653288  37.3886991  58.8560724  76.4586138  35.6900167   3.6462900
  75.9729397  36.5132618   3.6974686  77.2842705  35.8706975   4.0955979
  12.7682972  76.7360306  49.8397923  13.4035861  77.1674347  50.4112244
  12.2733283  76.1607790  50.4231644  77.5495016  18.1969869  41.8782949
  78.0754417  18.6384273  41.2114000  77.1757799  18.9084506  42.3982811
  71.9727659  58.8526917  31.0905170  72.0174265  57.9173136  30.8922458
  72.6760149  59.2415953  30.5704927   5.6107730  69.2126942  21.4947319
   6.2776643  69.4713163  20.8586478   4.8553687  68.9640045  20.9620500
  71.0100006  58.6358976  27.3662090  70.3767800  57.9254818  27.4690485
  71.3218688  58.5502148  26.4653063  13.8694298  22.1735549  56.6927528
  13.1277633  22.7298522  56.4546442  14.0503836  21.6644883  55.9026003
  10.1661074  52.8687763   2.3984149  10.9249306  52.7169800   2.9617780
  10.5313206  53.2605982   1.6051137  42.8415536  27.8112388   3.6562532
  42.3523235  28.6306500   3.7300658  42.2217321  27.1364379   3.9331916
  73.8290810  21.5965128  36.5288067  73.6970209  22.2727418  35.8643484
  73.9011502  20.7822371  36.0308170  71.7809148  75.3467745  42.9490709
  71.6862590  74.5079965  43.4004259  71.7748816  75.9981788  43.6504030
  15.0027239  18.7563813  23.2728934  14.8232710  19.6532977  22.9908133
  14.6006238  18.6927760  24.1392064   3.4275132  37.9305363  28.5541320
   4.1223389  38.4766054  28.1863594   3.6912513  37.7872658  29.4630575
  42.3973599  80.0132658  53.7934230  42.6400247  80.5266096  53.0228232
  43.1860175  80.0081088  54.3358479  10.3610229   0.8666898   1.2817015
  10.7792306   0.0443015   1.5366746  10.0986826   0.7298221   0.3713846
   5.9741747  57.7184772  45.8511543   5.8534777  58.6679745  45.8618689
   5.1515836  57.3685932  46.1934376  13.4947670  46.5202093  64.9726105
  12.6058817  46.1708355  64.9089575  13.4982657  47.2747946  64.3836927
  42.7835703  30.4937720  43.0316162  42.3735428  30.6698871  43.8784266
  43.7208080  30.4564238  43.2224607  18.9911020  60.1239061  37.0940924
  18.0409253  60.2382755  37.0762944  19.2029095  59.7461748  36.2404609
  20.0975537  39.1084766  25.1352119  19.9552488  38.2111359  25.4364729
  19.9231660  39.6500468  25.9049678  17.3564255  17.5691497  23.7940931
  17.2861123  16.7662919  24.3105292  16.4600837  17.7519810  23.5123563
  26.1670828  68.7460899  44.8764086  25.9767175  67.8147984  44.9890566
  25.7721090  69.1654682  45.6408358   8.3063728  32.5185061  40.2745581
   7.7940297  32.1669078  41.0026455   8.0728889  31.9660258  39.5285821
   2.6831940  62.9196978  42.1889687   2.5838032  61.9916391  41.9766903
   1.8377057  63.1724644  42.5597668  67.4022471  50.7092285  56.8097639
  67.5615274  51.6399431  56.9667053  66.5947699  50.6876898  56.2962008
  63.6611199  46.1854982  33.0608010  64.3208622  46.8694735  32.9461241
  62.8800916  46.5312243  32.6287127  86.5489690  46.0081244  32.8187799
  86.8986305  45.1834106  32.4814153  85.8718502  46.2564707  32.1894407
  72.9716396  49.9540901  50.7194710  72.2491514  49.4618511  50.3296757
  72.9121529  49.7655106  51.6560268  12.0313120  36.3870382  65.9818029
  12.2203219  35.6002426  65.4704714  11.2055576  36.1920762  66.4249182
  85.1916187  49.0381908   8.9614272  84.5559778  49.1254473   8.2510900
  84.6617537  48.8431406   9.7343636   3.2283992  19.9689901  58.5129642
   3.8226262  20.4938722  57.9766607   3.5852745  19.0819585  58.4677267
  26.3771772  13.4801424  24.4391227  25.7657146  13.4302676  25.1738739
  25.9296274  13.0279696  23.7239504  16.2957835  38.4158921  17.6459408
  16.9140124  39.1393948  17.7487457  16.5318108  38.0162883  16.8087792
   6.2827382   1.5394995   3.3836092   7.0458874   2.0272896   3.0739464
   5.5359802   1.9809411   2.9789938  81.4097058  18.2758498  36.7174792
  80.7092380  18.3862019  37.3604417  81.3244140  17.3688626  36.4236546
  16.0130584  22.1263075  15.3130591  15.9679544  22.2891235  14.3708873
  15.2065063  21.6511512  15.5128920  10.6294465  41.6181231  49.9420500
  10.7389033  42.3399067  50.5611515  11.3946080  41.6753101  49.3697834
  57.7629470  24.4199967  25.2566528  58.7155055  24.3865585  25.1686239
  57.4832177  25.0516915  24.5941234  70.4920184  24.6416903  35.9190559
  71.3941812  24.8949003  35.7235599  69.9602496  25.3486466  35.5534506
  67.9201471  17.2226489  15.5305099  67.6197874  18.0593538  15.1756287
  68.3740258  16.8018746  14.8003209   4.8753244   4.8007193  31.5671563
   3.9261538   4.9242651  31.5605736   5.2265757   5.6257820  31.2323046
  14.9512458  51.4463711  22.3752189  14.9878609  52.2817564  22.8410721
  14.9318075  51.6890192  21.4494872  30.6149530   4.9155509  25.9459591
  31.2214136   4.9644288  25.2070069  29.8402452   5.3948331  25.6521058
  23.7143683  50.2017069  45.1025915  24.4354320  50.6897163  45.5002689
  22.9776764  50.8127928  45.1119566  76.2883031  30.3099704  28.1083608
  75.8998703  30.7703733  28.8522553  75.8403456  29.4642639  28.0896807
  77.7535855  11.9464648  64.6177340  78.4024280  12.6263845  64.4362307
  77.3602974  11.7571771  63.7658358   9.8208338  63.1498432  64.8585606
   9.5830160  62.6623535  64.0698719  10.0959992  62.4775076  65.4818439
  15.1111567  44.9121857  29.6716499  15.8034956  45.3566980  29.1824579
  15.2754200  45.1459694  30.5852103  71.7287488  17.1477677  63.5860108
  71.3068492  17.9689146  63.8388888  71.2289185  16.8452622  62.8277944
  73.3334231  38.1648612  31.8249869  72.5731313  38.2491732  32.4003839
  72.9650163  37.9235578  30.9751177  27.3245239  27.9471731  20.0403833
  28.2749200  27.9130292  20.1490808  27.1618223  27.4959254  19.2120492
  49.8080205  36.2329459   8.0825061  49.2427420  35.8372521   7.4190927
  49.2352437  36.8357968   8.5565627  11.0741019   1.8341111  35.1834154
  10.1356065   1.7676254  35.3595924  11.1329055   2.3862362  34.4037151
  33.8439131   7.1650213  54.4908047  33.2967353   7.9500550  54.4673347
  33.2458353   6.4638472  54.7494316  75.2082586  33.0774355   7.8777736
  75.3541004  32.8267741   8.7899864  74.5246231  32.4813271   7.5719470
  67.9745113   4.0825006   0.4535229  67.4019431   4.2491615  -0.2952244
  68.1827592   3.1501943   0.3929491  52.5787544  66.4472437  39.6364594
  51.9642662  66.1777306  38.9538193  52.6526927  67.3957682  39.5312572
  37.2124648  20.0377655  42.8152943  36.2571573  20.0977993  42.8111792
  37.4946046  20.6627321  42.1474314  77.7112382  34.2614222  40.4761696
  76.9635724  33.7089372  40.2481604  77.7848780  34.8775268  39.7473168
  74.6406137  19.7435617  25.6629157  75.0181174  18.8670659  25.5889034
  73.7700152  19.5988679  26.0335255  15.0896597  19.0599561   7.8813964
  15.1368749  18.4181213   7.1728408  14.5565152  19.7708213   7.5255030
  23.1235003  29.7326183  16.1138153  22.3415470  29.9049544  16.6382968
  22.8943968  30.0361323  15.2353942  68.0252373  13.9597559  50.6954622
  68.8102805  13.4695089  50.9395885  67.8428971  13.6875570  49.7960806
  78.9252412  72.5028276  14.4673836  79.3982577  71.8190956  14.9417210
  79.4609254  73.2878542  14.5814383  43.9111808  60.2497854  47.7437411
  43.0324033  59.9728432  47.4843489  43.7882378  61.1262562  48.1083189
  38.0976796  42.2421074  16.1517918  37.3948193  42.2608232  16.8013060
  38.5080171  41.3851023  16.2675512   9.9033314  15.9305143  33.9883780
   9.4827443  16.3922966  33.2630539  10.8378851  16.1011028  33.8711548
  42.2551107  14.5296013  24.8617268  41.9925547  13.6371934  25.0873518
  41.9240427  14.6592128  23.9730048   6.4185822   8.6021274  29.5805502
   5.8564818   9.1973478  30.0765228   7.2597671   8.6315173  30.0363731
  37.2614105   8.6966683  66.9081850  38.0847115   8.2253815  67.0358328
  36.5993435   8.1361367  67.3127882  69.5268213  40.7246113  16.7463923
  68.5970914  40.5880117  16.9285274  69.7693264  41.4752769  17.2885430
  29.0737343  52.9502821   9.8922539  28.3554673  53.3410454  10.3898787
  28.7077069  52.8009319   9.0205026  61.6883635   9.8421460   7.3392844
  61.6162943  10.5150414   8.0162251  60.8164667   9.4492716   7.2983158
  64.3615269  29.3179560  13.2003820  64.8139667  30.1496053  13.0593622
  64.3595671  28.8975382  12.3404539  78.7492974  62.5762642  44.9910498
  79.4613964  61.9406641  45.0628710  79.1847522  63.4000958  44.7721624
   6.1673844  47.6124430  39.5042229   6.5685886  46.8226957  39.1415071
   5.5554587  47.2883511  40.1650858   4.2640305  23.3680964  39.3954062
   4.8616424  24.0965366  39.2266822   3.7600031  23.2795072  38.5864925
  51.4739895  16.6007435   0.0615031  50.8784580  16.3384056  -0.6404600
  50.9130669  17.0429826   0.6987036  11.6986489  33.8396478  44.0813541
  11.7540359  34.4139934  43.3176184  10.7617605  33.7787771  44.2678165
  86.2077172   1.3693549  65.0792073  85.5294711   0.9490038  65.6079034
  85.7466919   2.0602681  64.6034656   9.1514379  55.4565859  41.2386847
   8.4626108  55.8340168  40.6916094   9.0129352  54.5112801  41.1799717
   2.0663172  80.9238148  15.8488631   1.5453820  80.1326466  15.9863746
   2.1721750  80.9788227  14.8991263  10.5559747  35.6594800  26.7936826
  10.5399959  35.8392381  27.7337146  10.8227281  36.4882134  26.3958526
  21.0194063  68.3457375  20.1419663  20.0861716  68.1464624  20.0671840
  21.0896397  69.2645216  19.8828650  57.2087086  22.8383519  66.0296930
  57.0889876  23.4767271  66.7328100  58.0644159  23.0503918  65.6568168
  29.5893621  73.7323999  16.2651372  30.1896572  74.0568113  16.9364309
  28.9448690  74.4325018  16.1616158  36.4935504  15.0392198   9.3740022
  37.3887341  15.0437306   9.0350962  36.3135724  14.1182565   9.5628405
  82.6595598  49.0997744  35.0925994  83.1958934  49.8542738  34.8490715
  82.4598562  48.6695242  34.2611933  81.9942624  19.6657921  47.6042543
  82.6551349  19.4744851  48.2697473  82.4963457  19.8059155  46.8014417
  16.8657076  58.4924269  47.1808338  16.6150117  58.6173916  46.2655354
  17.2290170  59.3370199  47.4471092  78.9027625  15.7765973  63.6235857
  77.9562848  15.6769502  63.7259674  79.0661007  15.5784798  62.7014685
  17.5958157  35.9348536  18.4372842  17.1786320  36.7890000  18.3249402
  16.8665063  35.3171086  18.4895563  39.2173743  70.5754232  47.1449661
  39.3918419  69.8186636  46.5854025  39.2223859  71.3222361  46.5462351
  82.7117951  22.1733834  43.2629524  83.4015186  22.5645138  43.7991701
  82.5236256  22.8335692  42.5958834  31.9320807  37.8331540   5.5977739
  32.3336825  38.6646674   5.3457083  32.6726088  37.2470019   5.7535614
  11.3308167  18.5152733  45.7982922  11.3275242  18.1551945  46.6851759
  10.4235840  18.4349716  45.5038166  30.8116579  48.1928396  31.9668746
  30.0971818  48.1499052  32.6024175  31.5838075  48.4107590  32.4889159
  13.5185790  44.9081135   7.0059305  13.2177055  44.7684813   6.1080384
  12.9560626  45.6062603   7.3411852   2.1208945   1.4116029  38.4459782
   2.8863353   1.7758864  38.8905334   2.1527927   1.7883599  37.5666213
  18.3083451  43.1981277  44.5382023  18.5946488  43.9587450  45.0438929
  18.9774990  43.0946589  43.8616228  41.5894747  69.5169926  15.0793207
  40.9875298  68.7750959  15.1383364  42.4570370  69.1172266  15.0180113
  68.9832814   2.7019717  68.4859997  69.1574533   1.9199730  67.9621939
  68.7129528   2.3632504  69.3394765  20.2154064  49.3839598  49.4250250
  19.5702887  48.7154627  49.1944504  19.8098540  50.2095938  49.1602802
  58.7803716   4.9339320  69.4420686  59.2861528   5.4234291  68.7933710
  58.0166469   4.6162964  68.9603370   7.8175366  38.1844735  52.9137325
   7.1349418  38.8541722  52.9561806   7.5164026  37.4975109  53.5084009
  15.1157153  62.5471878  23.0305505  15.2807355  63.4687567  22.8312826
  14.8108757  62.5491953  23.9379096  49.5543528  73.7842941  20.8535028
  50.3699636  74.1235638  20.4848480  49.8273659  73.2965851  21.6305709
  21.8990016  44.1346979   7.5488049  22.3548269  43.4259510   7.0947909
  22.5936627  44.6192646   7.9947603  79.6053743  62.7723217  29.7686362
  79.0036308  62.5991011  29.0446663  79.4861334  63.7021828  29.9619365
  40.2932692  70.3033686  31.3544822  40.6362724  71.0276556  31.8779230
  39.9010658  70.7251167  30.5899286  11.4578891  52.2636890  52.2485542
  11.3993263  51.3589621  52.5555944  12.0169508  52.6992559  52.8919554
  22.2925138  27.7389908  12.8505504  21.4900923  27.2748089  13.0890596
  22.9805803  27.0767212  12.9153097  10.3877628  66.9532108  58.1942129
  10.0955069  66.0423374  58.2277679  10.1983345  67.2326899  57.2985363
  34.6575219  11.5041615  59.8739265  34.1309292  12.1990277  60.2690099
  34.0690262  11.0853793  59.2458115  60.0528002  20.1506019  23.9732361
  60.4187489  19.8216879  23.1521821  60.8149529  20.2968812  24.5335579
   3.3478352  41.6514874  36.7319393   2.7134067  41.8240929  36.0362816
   2.8126353  41.4631033  37.5028515  69.7366187  22.4738381   0.8227266
  70.2715346  23.2599423   0.9329189  69.0126094  22.7533934   0.2624668
  15.7101166  23.9263034  24.5896530  16.0974777  23.8792419  25.4637051
  14.7684085  23.8442826  24.7402859  75.2891349  48.8820219  21.0982156
  76.2161922  49.0863371  21.2209034  75.2876508  48.0398941  20.6431890
  66.6340279  65.2572155  40.1751709  65.8157205  65.2503204  39.6786237
  67.2567152  65.7075024  39.6044421  61.0735552   3.8843488  39.1418672
  61.1215512   3.0793332  39.6575069  60.2840845   3.7816667  38.6104298
  23.3298182  17.4837792  55.6818199  22.8544402  17.5453818  56.5103436
  24.0143538  16.8351996  55.8460951  11.6492176  39.0190530  15.7028639
  10.8211601  38.8467479  15.2546859  11.6029799  38.4938264  16.5017581
   4.6770272  30.2059698  36.1390781   5.0998771  29.6309948  35.5012417
   3.7424546  30.1315498  35.9460282  20.9286523  56.4237022  37.7440429
  20.5122495  55.5974245  37.9892039  20.3794861  57.0970583  38.1455898
  42.6594591  66.1065102  32.7288032  42.1646976  66.7433167  33.2444763
  42.3735666  65.2554846  33.0608535  25.2406923  20.8864354  20.8123660
  26.0491450  21.3042783  20.5156398  24.7614609  21.5833139  21.2606168
  27.1982574  66.4348650  62.4212694  26.2691450  66.6650295  62.4240971
  27.4826455  66.5756941  63.3243370  14.7641718  19.2418361  45.6028271
  14.9343026  18.3130670  45.4457521  14.6429849  19.6142006  44.7293901
  55.9097528  58.6374807  18.3831096  56.0261536  57.8184891  17.9015136
  56.1970997  58.4347486  19.2733693  74.0452289  20.4676199  52.2299576
  74.1148614  20.4408503  53.1842470  74.4338440  19.6429372  51.9382238
  10.3910315  16.3100374  42.8623724  11.2068701  16.6856515  43.1933594
  10.6417680  15.4482579  42.5296545  33.2040071  67.9764128  37.0983410
  33.6438036  68.8158655  37.2329807  32.8657532  67.7419138  37.9625320
  53.9554309  -0.0251827  68.8560104  54.5296597  -0.0522425  68.0906582
  54.5396208   0.1774126  69.5867014   6.6733605  52.0451832  14.5416200
   6.1580849  51.4564371  15.0930762   6.1484659  52.1507835  13.7481678
   6.5600765  29.6134758  27.4060893   6.8917668  28.7935758  27.0400596
   7.2783977  29.9424458  27.9464817  11.9013047  58.3948517  12.8608489
  12.1834052  58.2709885  11.9545889  11.5794039  59.2958164  12.8904796
  82.2597956  45.6049347  28.2144785  82.2378843  46.3444948  28.8217664
  81.6900557  45.8707476  27.4926949  24.9396586  44.7966623  20.9391284
  24.1489315  44.2653751  20.8457851  25.6088281  44.1800547  21.2361741
  14.2629719  40.0689650  49.0393543  13.8297427  40.3887510  48.2479715
  14.1262722  39.1217542  49.0211344   2.4932627  43.9666796  22.7558970
   3.4018022  43.7832499  22.9949403   2.4104044  44.9165201  22.8406000
  85.7820688  73.2187176  14.5742190  86.3391999  73.9898968  14.6796656
  85.9425403  72.6979017  15.3611314  25.5819535  79.5756865  40.2717638
  25.6835365  78.9215517  39.5803714  25.2906346  80.3644276  39.8143172
  10.9724069  53.1673622  20.6745076  11.8509769  53.5422230  20.6126404
  10.7415545  52.9478550  19.7718692  44.3581200  55.7571459  19.0187287
  43.7100697  55.0930882  19.2538679  44.1761446  56.4888000  19.6084762
  71.6758959  15.0452851  32.4178195  72.2340910  14.5161676  32.9876399
  72.1630327  15.8600186  32.2948194  59.0406339  14.9198579  47.4498940
  58.7114875  14.5348310  48.2620764  58.4411733  15.6435346  47.2677517
  29.5208836  63.3339405   7.1372747  29.4483495  63.3043623   6.1832857
  30.2060676  63.9808369   7.3054397   2.7468005  65.0067139  32.1827888
   3.4746474  65.4947567  32.5678658   2.2985192  64.6143532  32.9320097
  42.5317912   6.0034894  20.8996487  43.1444327   5.3155088  21.1596155
  41.6718702   5.6654309  21.1496115  10.1776385  31.9503498   3.6165646
   9.5752627  31.3744235   3.1457299  11.0268879  31.7994571   3.2015491
  13.4660721  40.3430223  29.5763230  13.8143647  41.1352062  29.1672158
  13.4961343  39.6828151  28.8838959  14.5174217  11.0714436  33.1572366
  14.7615933  10.7836819  32.2775745  13.5708165  10.9358478  33.1994629
  43.8829756  71.6871071  11.9724333  43.9613104  71.6090155  12.9232204
  44.7393179  71.4195538  11.6387784  28.5257459  33.3403945  43.6748552
  27.8901362  33.0458331  43.0225754  28.8153553  34.1958666  43.3578014
  13.2547915  44.1200161  23.0824852  12.5324142  44.6189737  22.7011108
  13.9951968  44.7266245  23.0748248  21.3543916  64.5182085  57.5093794
  22.2628760  64.7926617  57.6341248  21.3818765  63.5634518  57.5719500
  12.5977552  56.2325525  40.3750277  11.9292009  56.7908955  39.9781418
  13.1661344  56.8395185  40.8491278  13.9285243  47.4765396  38.1005859
  13.8379645  48.3358192  38.5124969  13.8260221  47.6477051  37.1644092
  34.5431852  51.4338064  33.9507318  34.9601746  51.3799191  34.8106408
  33.6414623  51.6948700  34.1377473  33.4133196  70.9845781  14.1711605
  32.9369688  70.2863503  13.7219405  32.9165411  71.7786694  13.9740264
  28.4239745  57.8501940  33.1034327  29.2514992  57.3769665  33.1899667
  27.8464365  57.4427652  33.7489438  49.6489525  67.7083349  56.1465979
  48.9249229  68.2276773  55.7968998  49.2485571  66.8745041  56.3928556
  69.0064406  49.4715357  42.7859831  68.3653128  49.1536617  42.1502590
  69.8549747  49.2641258  42.3945713  34.0967655  70.2099705  38.1722927
  33.1980133  70.5383396  38.1468415  34.5284915  70.7450438  38.8382792
  33.0358267  31.2426829  38.7020254  33.1824040  32.1884394  38.6849403
  33.8962340  30.8704138  38.8952804  17.0666313  45.4011011  27.7200985
  17.4163675  45.5546618  26.8424106  17.5653148  44.6532726  28.0491805
  42.2087090   3.4059571  28.3468843  42.1863596   2.5374650  28.7487006
  41.5374486   3.3718919  27.6653552  80.4023438  45.5817842  32.7250099
  80.1483297  45.5224037  31.8040419  80.8939796  44.7772741  32.8902197
  46.7503023  76.2423992  41.7881107  46.6767168  75.2882099  41.8064642
  46.5688086  76.4791679  40.8785868  17.8944385  11.4458835  13.8757658
  17.2550964  12.1527267  13.7871778  17.4308085  10.7629180  14.3603659
  17.0595968  58.1449842  31.3153291  17.7503276  57.8321171  31.8994832
  16.2485623  57.9929876  31.8004608  81.2283110  59.2717886  39.7493982
  80.8230870  59.2466116  40.6162262  81.0185009  58.4219313  39.3621540
   7.6952612  49.5370483  43.7388659   7.6651108  49.1424131  42.8673267
   7.8670108  48.8028002  44.3284512  16.5068996  57.4114180  22.7897859
  16.5854144  56.6031218  22.2831059  15.9050763  57.9552031  22.2815180
  80.5104100  60.1588440  25.8672929  80.5392044  60.9923887  25.3976107
  79.5885872  59.9021339  25.8433151  24.4479561  66.5318346  40.8241844
  24.8867178  67.3808718  40.7707739  24.3044138  66.2786293  39.9123096
  32.8146458  21.9903159  50.5933189  33.1352329  21.3807559  51.2580681
  32.0154595  22.3577785  50.9708118   1.2611321  47.7377844  18.2739794
   0.7564098  47.0440006  17.8495312   2.0308211  47.2919512  18.6275947
  72.3357494  31.2949301  58.3074389  72.6446314  31.2418343  59.2118738
  73.1140585  31.1213900  57.7779578  74.8344397   1.2065549  30.9504366
  74.0612923   0.6566276  30.8237338  75.5704104   0.6446055  30.7079625
  36.3176656  70.9379959  30.9659147  36.7566657  71.7202234  31.3000321
  36.7166328  70.7870102  30.1090264  45.8670330  21.7095304  20.8779287
  45.1518774  21.3856244  21.4255333  46.4350128  22.1863961  21.4830971
  14.5416141  75.5917931  69.0535212  14.0958560  76.2761164  68.5542917
  14.4851708  74.8145342  68.4977198  68.1342968  32.8084538   4.0899195
  67.2106132  32.6883290   4.3103947  68.1434223  33.5608218   3.4982313
   3.1365439   0.5186785   4.8844779   2.9189420   1.3929027   4.5610386
   3.7852845   0.6720489   5.5713880  44.2817926  39.1325593  30.6909466
  43.4146547  39.2482400  30.3024697  44.8716688  39.0544724  29.9411583
  34.2088048   6.5969419  37.1302676  33.4252728   6.4215421  37.6513672
  34.5857124   7.3847055  37.5221896  71.2506306  28.5234547  10.3847730
  71.1021911  27.9768634  11.1564171  70.5174159  29.1387796  10.3824830
   4.9831733   5.8381218  10.8430362   4.6365365   6.5807158  10.3484356
   5.7976121   6.1644411  11.2257063  15.6638086  72.0013571  40.8873415
  16.1011124  72.7856779  41.2187576  16.0216594  71.2868690  41.4142895
  15.0708723  40.4136515  13.7759280  14.6366072  39.6533298  13.3892035
  14.5472884  40.6204748  14.5500851   2.6722604  65.7060575  42.4374485
   2.7399552  64.8242855  42.0712233   2.0055711  65.6313038  43.1202126
  40.6026030  42.1596909  26.7118120  41.3759375  42.2129869  26.1502552
  40.1584053  41.3591671  26.4323783  31.8649800  10.5533170  37.4408722
  31.5108914  11.1329507  38.1153202  31.0938002  10.2226876  36.9802189
  47.6753874  44.7190644  67.8606374  47.0007319  45.3245236  67.5532459
  48.4860386  45.0453831  67.4700038  74.3146300  74.3866682  23.0674601
  74.2546701  73.9680195  22.2087550  74.0724408  73.6983252  23.6869431
  78.1779318  38.9204097  53.6061382  78.7866908  39.0048289  54.3399763
  78.4711855  39.5774722  52.9748678   4.8436666  49.5780563  70.4567242
   5.0089449  48.8555527  71.0624456   3.8894826  49.6376514  70.4096746
  35.3110337  61.5794086  33.8249731  35.8678555  61.0906696  33.2189107
  34.7451138  62.1049643  33.2594967   3.2195139  55.9602976  21.5703201
   2.8142077  55.0931740  21.5780234   4.0097779  55.8506107  21.0414696
  52.5653378  15.0705098  43.0692005  52.7755944  15.3566979  42.1803141
  53.3414237  15.2944421  43.5827923   0.0966536  14.6135044  17.2287393
   0.3279187  13.7911510  17.6605749   0.0482059  15.2521908  17.9400504
   1.2732920  13.6242867  48.5696363   1.6140941  14.4860685  48.8092566
   1.2480474  13.6342812  47.6128197  54.6770287  75.7783651  40.6876659
  54.1882515  75.4954529  41.4605093  54.2822313  76.6168547  40.4482794
  80.4168408  54.4456482  32.6760149  80.0512868  53.8035822  32.0674491
  80.1538002  55.2929831  32.3167610  23.9411306  41.4921665  44.5318270
  23.0104923  41.3157463  44.3939257  24.3879032  40.7429552  44.1377306
  66.7872619  55.4964972   1.0750895  65.8828544  55.6481838   0.8007352
  67.3168372  55.9147215   0.3962128  25.7613993  68.4612703  34.5990515
  24.9963856  68.2732058  35.1427579  25.5589390  68.0602503  33.7538123
  78.8622015  29.4523621  33.2582760  78.3219987  28.6993003  33.4976697
  79.7379577  29.0878534  33.1301475  86.5690156  61.1859131  22.8563833
  86.1542737  61.8120575  23.4498239  87.4091842  61.5870380  22.6340103
  85.2634493  14.6844840  21.3674283  85.9781061  14.0499926  21.4214396
  84.4739995  14.1712701  21.5395093   3.1573492  69.2047834  53.3966923
   2.7080992  68.9383411  52.5945616   2.4552450  69.3230247  54.0364599
  19.0420508  65.9106112  14.8735368  18.4949005  65.5279589  15.5594206
  19.2406797  65.1787615  14.2894363  27.9559922  51.9234180  27.8706360
  27.2840071  51.3218212  28.1911850  28.1384015  52.4972343  28.6147404
  76.7433869  54.7834778  22.5254536  77.4035352  55.4727125  22.5988817
  76.4152932  54.6700621  23.4174871  36.4468169  62.1777105   1.9845778
  37.1856380  62.4514055   2.5281456  35.6735086  62.4732208   2.4651016
  42.9981377  69.8860934  60.8248483  42.8308084  69.0172198  60.4597579
  42.5070587  70.4821446  60.2593432  42.4550724  38.6349058   0.6047617
  41.8127584  37.9480624   0.7834081  43.2699871  38.3051014   0.9834098
  28.0360866  40.4251814  44.9064922  27.4485016  41.0634041  45.3110313
  28.8483548  40.9088659  44.7564888  75.1078033  31.1463690  30.2954221
  75.0652575  32.0559573  30.5904984  74.3018483  30.7494545  30.6257653
  41.6607360   4.0389203  37.2781515  41.0466663   4.3311738  37.9517508
  42.4678068   4.5182275  37.4655890  35.4950762  33.8547564  16.2874806
  34.6865368  33.8878322  16.7987549  35.2059650  33.9223170  15.3774917
  48.7435341  34.7698879  16.3107812  48.8702536  33.8316989  16.4521146
  48.2226753  34.8231912  15.5094731  59.9096597  -0.0757383  69.1551100
  60.3128010   0.6731869  68.7159999  59.9659164   0.1343991  70.0872630
  51.4002562  60.7180882  45.1027250  52.1916342  60.3404856  44.7188330
  51.5538073  60.6870270  46.0470200  10.6337523  72.8038406  28.5866618
  11.5003884  72.4121952  28.6952281  10.1605487  72.1872425  28.0279875
  82.3337244  20.3816390  17.0984757  82.8073972  20.8706546  17.7713287
  82.9551052  19.7155869  16.8043828  19.3968058  63.2401037  13.9024055
  19.6003437  62.7392435  14.6923053  18.5356081  62.9215288  13.6320710
  86.6873013  69.3250656  44.7691917  86.2883644  69.3253660  45.6393003
  86.6217992  70.2336979  44.4753647  44.4577408  70.1076508  34.3318057
  44.6454573  69.5903540  33.5486102  43.8191843  69.5848846  34.8167682
   3.1478634  58.3253717   8.0305701   3.4259576  58.4238720   8.9411706
   3.1623408  57.3807573   7.8765595   5.1198590  35.8388424  58.9817667
   5.5112106  36.7123771  58.9782906   4.3715197  35.9140062  59.5738554
   4.9017912  48.7872410  44.8882771   4.0557548  48.7795782  44.4406223
   5.4072696  49.4610023  44.4335556  16.1644840  53.9322281  37.4494910
  16.7065823  53.6474800  38.1852078  15.2658129  53.8531733  37.7694464
  71.8765091  55.0755024  63.7837219  71.0767793  55.5944395  63.6978817
  72.0321988  54.7283554  62.9053831  72.7356024  73.3193184  27.7885056
  72.1099825  73.9675052  27.4649525  72.2132356  72.5285722  27.9229879
  76.6957425  13.2880652   7.5070345  76.9446766  13.1772876   6.5894336
  76.3202977  12.4437833   7.7569556  73.9209163  41.7319441   7.7980036
  73.6791849  40.8709812   7.4566239  74.0874099  42.2608519   7.0177680
  73.4203874  36.7010236  69.9490213  72.5671291  36.8725872  69.5505857
  73.8186478  37.5662279  70.0440931  22.0251799   7.2900033  22.9309702
  22.2637486   7.4055398  23.8507366  22.4151683   8.0424476  22.4860358
  40.4826689  37.0912743  16.2982893  41.2132311  36.9715691  15.6915092
  39.7971082  36.5123963  15.9649110  25.3859735  38.6041451  30.1664639
  25.3790832  39.5378280  30.3772235  26.1663008  38.4866548  29.6246910
   7.5743993  16.4134575  53.6962066   8.5069283  16.3294722  53.4972881
   7.1671374  15.6686045  53.2539771  31.0758758   4.1657689  11.4805400
  30.9396696   3.2579684  11.2092876  30.7689881   4.1935715  12.3867857
  59.6855154  58.8711681  68.9943954  58.7401715  58.9998045  68.9168574
  59.7966495  57.9207721  69.0194657  27.8839874  63.8370466   9.2115045
  27.1379066  63.2477188   9.3223858  28.3295369  63.5146046   8.4280837
  14.0977883  36.0402250   3.2725313  14.4746614  36.7786860   3.7509406
  13.3822036  36.4235449   2.7653456  85.4871916  43.0879641  28.0282950
  85.1277747  42.3349237  28.4973168  86.2867388  42.7563047  27.6196909
  24.6396065  60.4839993  50.9621906  24.4772077  60.1682758  51.8511057
  23.7669778  60.6246901  50.5948257  82.9724070  81.4510822  64.8679495
  83.4229224  80.7789612  64.3565702  82.0525720  81.1866474  64.8534679
   8.7935132  70.0561810  22.6096582   9.1710484  70.7724714  22.0991421
   8.6425489  69.3599987  21.9703054  54.2084376  67.0583461  11.6564907
  54.8032920  67.7525137  11.9402374  54.4557015  66.8876837  10.7476582
  11.4133811  50.0288296  10.6558824  10.7930517  49.7706938   9.9741262
  12.2444904  49.6401310  10.3831089   3.3315223  70.5968285  17.4153709
   3.0881965  69.7500896  17.7896190   4.0658760  70.3995752  16.8339527
  36.1111498  49.2074442  37.8873301  35.7061744  48.4239006  38.2591915
  36.9021654  49.3392420  38.4099746  58.5070372  53.2807541  59.6226025
  59.4096661  52.9622841  59.6310520  58.5736799  54.1966963  59.8924875
  20.4235005  66.5731764  11.2844038  19.4672453  66.6020441  11.2532187
  20.6287575  65.6634331  11.4999712  33.8179493  55.9481478   6.1867803
  33.1168556  55.8485937   6.8308210  34.5874405  55.5668354   6.6095245
  31.7981744  36.9351840  28.2932401  31.6736889  36.0384154  27.9825306
  30.9657598  37.1629214  28.7073112  10.0088048  32.2742057  22.6116157
   9.4470567  32.2709513  21.8365932  10.6238592  31.5556383  22.4646449
  14.8997474  56.6563272  28.9316988  15.3445649  56.6886663  29.7786474
  15.4468501  56.0823059  28.3955884  25.6885791  50.6227016  18.9862800
  26.1903071  50.5658865  18.1730926  24.8134065  50.8939505  18.7092829
   6.7764002  43.3188772  44.1118050   6.0370183  43.3300352  43.5040045
   6.5835506  42.5972271  44.7103596  12.5753319  27.8035092  70.7062197
  12.6633847  27.7346778  69.7555637  13.4056127  27.4720621  71.0482836
  35.8707190  38.1472921  17.7235079  35.6568074  37.2144938  17.7045095
  35.0562978  38.5848832  17.4755931  59.9496400  54.8384835  55.5294047
  59.1708278  54.9916817  54.9944137  60.1530043  55.6942536  55.9069429
  18.9649582  46.7076731  42.5484562  19.8110282  46.3509464  42.8188992
  18.8167870  46.3387823  41.6777086  24.6914864  64.4796991  48.5595083
  25.6446338  64.5677042  48.5596657  24.4454598  64.5375729  49.4827366
  85.8189540  39.6301317  36.4979124  85.6655712  39.9044251  37.4020505
  86.1868918  40.4043150  36.0718942  56.3648197   3.0175755   0.7189955
  56.7895712   2.4242756   1.3385214  55.5674830   2.5581191   0.4555859
  13.2819891  13.1220925  58.3741283  14.1153109  12.8699088  57.9763699
  12.7484429  12.3283017  58.3359814  15.0747359  18.4025693  17.2423303
  14.5937443  18.3915758  16.4148295  14.7134447  17.6684833  17.7391386
  31.3380313  66.4624834  31.1780429  31.9765878  65.8683634  30.7837057
  30.4911971  66.0481977  31.0123110  78.2237012  20.8633639  64.1413937
  77.6449795  21.5584351  64.4547538  78.0937798  20.1458098  64.7614495
  19.6660483  40.5027056  52.5772572  19.8555815  41.2830782  53.0981493
  20.4477692  40.3783131  52.0390463  67.5355183  70.1279116   0.7221868
  66.9418549  69.5154715   0.2877766  67.5264239  70.9062290   0.1650788
  13.7157083  41.8109989  32.0677328  13.0111420  41.6801643  32.7023172
  13.5284960  41.1838150  31.3692880  19.0852020   1.1950158  45.4099560
  18.3508949   0.7890081  44.9493217  19.6886544   0.4723500  45.5826569
  32.1281052  47.5356674  15.9498966  32.2687340  46.5979195  16.0806012
  31.3741255  47.7439690  16.5015793   4.6003397   1.6458489  54.1909765
   4.0314324   0.9846474  53.7967895   4.6983393   1.3657357  55.1010106
  22.9368854  36.3612080  31.3071799  23.4488320  36.2563229  30.5052185
  22.0261073  36.3520098  31.0128450  86.1506954   5.1829862  23.0620790
  86.0121504   5.8762597  22.4167800  85.2952567   5.0659799  23.4753156
  35.8335654   0.5704545  41.3278246  35.0474445   0.2837895  41.7926550
  35.6546996   1.4812039  41.0937786  15.7391608  35.3534389  68.1349802
  14.9936473  34.8956537  68.5234070  16.5053475  34.9639630  68.5562849
  73.6633956  51.1920834  45.9924316  74.3699037  51.2702656  45.3513670
  73.9235651  51.7726707  46.7075968  64.7033257  16.0022665  62.5678049
  65.4188342  16.0267092  61.9324456  64.9831952  16.5935685  63.2665650
  85.3289764  62.0050716  51.0035849  85.1476856  61.2172174  50.4910851
  85.5398697  62.6723528  50.3505230  12.1679115  56.7096281  49.4974422
  12.2486222  57.6623011  49.4511938  13.0601358  56.3872099  49.3701172
   9.3659335  63.0497980   3.1590754   9.4640237  62.1476078   3.4634882
   8.4266067  63.1495762   3.0043468  36.9389200   2.5292379  68.8988638
  37.0481300   2.3230928  67.9705238  37.3115921   3.4056491  68.9950466
   9.1082128  53.9155270  66.2951101   9.2097862  53.7513234  65.3575860
   8.6003383  53.1699826  66.6152044  69.4381952  79.2280006  47.3380756
  70.2795029  78.9349318  47.6881409  69.2534781  78.6224604  46.6201401
  50.6530046  60.9044647  13.8125479  50.2298307  61.3145685  14.5668471
  50.2033710  61.2767410  13.0539513  61.9879763   7.6666116  39.7656822
  62.3113458   6.8503236  40.1469088  62.7275197   8.0045556  39.2606044
  33.4652911   3.6811971  38.6237216  32.7393876   3.0883836  38.8183117
  33.9889304   3.2132386  37.9733038  74.2844875   8.4712817  42.3985492
  74.7616060   8.8937737  41.6843425  74.6204693   7.5751139  42.4138723
  36.0920906  65.5245733  50.4961920  36.0525060  66.4566278  50.7105207
  36.1303782  65.5000877  49.5400715  70.0281199  48.3472512   5.5639567
  69.9499699  48.8866780   6.3508095  70.1548430  47.4580166   5.8947910
  22.6232362  58.3794117  19.7284114  22.0846605  59.1521072  19.8990142
  23.5165071  58.7182951  19.6696508  14.9802113  69.3071365  19.9552393
  14.9849582  70.0673294  20.5368900  14.7047460  68.5800743  20.5135703
   3.4245865  10.8964776  62.4005032   2.9877608  11.6656922  62.7661896
   2.8570216  10.6177568  61.6818857  25.7019448  62.9320240  21.3529611
  25.3117561  63.3880711  20.6073022  25.0040579  62.3629951  21.6775942
  42.1010475   4.6411466  34.7413588  41.6843585   4.4361161  35.5783558
  42.6732747   3.8933896  34.5691586   7.7980321  21.3762330   4.9984765
   7.6572077  22.2904634   4.7523382   7.4274008  20.8731603   4.2733708
  37.6917744  74.9472618  32.8030014  38.1811118  74.1425323  32.9738641
  37.8829002  75.5080080  33.5548425  25.6667542  56.7103624  34.2113638
  24.9245024  56.2082434  33.8749599  25.6877875  57.4990129  33.6693144
  76.7555945  59.5690870  32.3764801  77.1373611  60.4468584  32.3756599
  77.1870398  59.1209364  33.1039762  19.8354053  64.5904922  40.3220463
  20.4922843  63.9938164  39.9632668  20.2981424  65.0716591  41.0080385
  56.1590402  21.8340539  50.5849361  56.6378872  21.8688630  49.7568512
  56.7689650  22.1927690  51.2295675  22.9411602  38.4453392  29.2450809
  23.8185406  38.3696246  29.6201801  22.3537683  38.1891561  29.9561167
  36.8174647  23.8532781  16.4884818  36.5729241  23.0466413  16.9420910
  36.0328071  24.3997811  16.5318811  56.9644880  67.6525688  51.1046839
  57.5375557  67.0856428  51.6208410  56.2677574  67.9044867  51.7107630
  20.3687819  39.9542118  66.2373345  19.7017248  39.3631913  66.5865792
  20.6191118  40.5000569  66.9827332  15.1970792  80.3581142  60.6501245
  15.1574397  79.4866848  61.0441589  14.6652579  80.2869701  59.8574495
  53.8575983  56.6123390  35.4884624  53.5634518  56.1996651  34.6764231
  54.7398281  56.9270229  35.2912974  67.9021637  12.9033803  36.0084629
  68.3856456  13.4968518  36.5831590  67.2431771  13.4581327  35.5910635
  36.4374804  79.3252802  37.1181440  37.2724628  79.7931623  37.1291518
  36.6606164  78.4310055  37.3764467  71.4147806  44.9919224  23.5895538
  71.4905548  45.4360580  22.7450228  70.5252838  45.1875591  23.8840914
  25.2985501  42.2637987  23.3334184  25.8262920  42.0685673  22.5590754
  25.5141163  41.5661287  23.9523053   0.8588894  44.2836475  16.6611063
   1.5281327  44.6178675  16.0639095   0.1341866  44.9036789  16.5798664
  30.7706700  30.4085588  37.6081300  30.3213130  31.2214040  37.3766255
  31.6813980  30.6691407  37.7456236  37.1857483  27.6861693  69.5850264
  36.8525894  28.3936001  69.0329549  38.0435855  27.4774624  69.2151803
  72.5317259  32.4847151  55.6680260  73.3984215  32.8344370  55.8748220
  72.1625860  32.2418906  56.5171443   9.8988994   2.6980807  68.1416194
   9.3465479   2.9452921  67.3999827   9.8319681   3.4366728  68.7467933
  69.5513241   6.3613462  17.0323431  69.2217915   6.7853211  16.2399518
  68.7637560   6.0938405  17.5060618  46.3393214  71.9021990  61.6434042
  45.9274927  72.4632003  62.3006003  45.8784750  71.0666540  61.7190133
  39.6294427  67.7478075  40.0284719  38.7979007  67.8172874  39.5594931
  40.2964354  67.8667212  39.3522954  41.8054867  59.4005919  24.6178651
  42.2811604  60.0051403  25.1874995  40.9706068  59.2580462  25.0638413
  17.5181508  67.9904270  52.7053738  17.2499704  67.4035120  53.4123755
  16.7136919  68.4427547  52.4514532  22.0677161  38.5992002  41.9840384
  22.3606491  38.0643845  41.2462091  21.1324191  38.4104156  42.0602703
  86.5560353  63.7579775  39.2976952  85.8490239  64.1330862  39.8227310
  87.2329933  64.4346523  39.2891836  26.9636798  49.2629242  47.9413986
  27.0570540  49.6567011  48.8088369  27.6604748  49.6624470  47.4207306
  64.8124592   5.5534791  36.2575626  64.0515010   4.9728059  36.2571836
  64.5040099   6.3527917  35.8307409  77.7599907  67.7814198   4.9709657
  78.2406139  67.1504927   4.4350833  77.2534275  67.2426844   5.5787432
  49.6406126  76.3673735  48.6217928  49.4540405  75.4500532  48.8216591
  50.2164221  76.6545820  49.3304443  84.7358601   1.6627645  48.0822897
  83.9165585   1.3553475  47.6943827  84.4994394   1.9108724  48.9760351
  67.7538454  58.7370062  14.0382409  68.3577716  59.4178057  13.7415648
  67.5934040  58.9438057  14.9589610  43.8377428  79.9630499  10.1601529
  43.7003803  80.7022953   9.5678055  44.7885847  79.9041557  10.2532029
  60.0869028   3.0894040  50.1133108  60.8100788   3.0463075  49.4877005
  60.2721755   2.3917913  50.7419920  80.6913471  48.3887720  45.8273363
  80.5906420  49.3242741  45.6514692  80.2962803  48.2633781  46.6901398
  54.1328129   8.6799739   4.3257679  54.1658157   9.2380879   5.1027168
  54.3435475   7.8045724   4.6505751  31.0496005  12.9296254  38.9133072
  31.9186871  12.7482270  39.2710996  31.0302439  13.8800668  38.8014221
  48.4695101  69.0645933  35.5995798  49.4192791  69.1824484  35.6162286
  48.3277702  68.3491087  34.9797225  13.0393136  50.7225800  65.8945179
  13.4219027  51.3150835  66.5416622  12.1979952  50.4662704  66.2723017
  78.3160310  42.5875807  43.5761547  78.3269417  43.4236526  44.0420961
  78.4833413  41.9332027  44.2544079  17.9782999  72.6346922  36.4896965
  18.7703001  72.6094818  35.9527302  18.1913435  72.1019793  37.2558951
   1.9000341  37.9989862  42.9011631   1.8383358  38.2634854  41.9833040
   1.0393914  37.6318479  43.1029940  72.4658386   4.4001626  46.2638378
  71.8506662   5.0123166  45.8600283  72.9365580   4.0121125  45.5262280
  60.8687401  20.9812522  11.0276866  61.0744190  21.2066078  10.1204157
  60.0335407  21.4163280  11.1991060  26.5159702   7.9967868  13.7692320
  26.9091797   8.7590498  13.3442926  27.1949196   7.3232687  13.7288332
  26.5396285  63.8462543  33.4971929  26.9308043  64.5282507  32.9512048
  27.2152925  63.6395025  34.1429186  11.6809185   6.6166474  64.1814546
  12.3352631   5.9860779  64.4821910  10.9508141   6.0775258  63.8772784
  22.1401405  55.0522804  29.2106080  21.9967031  54.9100637  28.2749629
  22.2678137  54.1741562  29.5695376  23.7918322  12.1091031  28.9335823
  24.3465508  12.2816800  29.6943283  23.4172205  11.2444066  29.1015387
   4.5606577  60.1187944  30.1962638   5.4909921  59.9163151  30.2948141
   4.1137308  59.4502258  30.7154059  23.7848234  52.9800844  37.4714899
  23.2062507  53.3329821  38.1474686  23.7585759  52.0325422  37.6045394
  46.2042029  26.0013176  47.3483740  46.8662150  25.3346135  47.5313364
  46.7051608  26.7614724  47.0526706   9.7723156  78.7951708  23.5179424
  10.0957072  78.1222153  24.1169238   9.2898113  78.3089113  22.8493834
  58.0639791  52.2074604   9.5077103  58.3811951  52.5783157   8.6842608
  57.1113110  52.2827196   9.4530213  42.6730871  72.1229506  33.7973499
  42.3293734  72.1141624  34.6906662  43.4537315  71.5703535  33.8356376
  20.7509112  52.0290184  29.4407988  21.4289093  52.2894907  28.8173389
  21.2309122  51.6119814  30.1562786  38.8407592   6.6565370   9.2381239
  39.6535580   6.6338586   9.7431743  38.2833867   7.2760819   9.7090054
  49.9259846  15.2964162  43.3244133  50.8714716  15.4182004  43.2380533
  49.8013465  15.0268029  44.2343616  24.3178749  69.7150993  13.0131972
  24.4284201  70.5159903  13.5256231  24.3497729  70.0072861  12.1022415
  11.8578410  79.4778252  51.9544268  11.2595129  78.8348007  52.3348904
  11.5391088  80.3211880  52.2759581  26.1836505  80.3818512  44.2856932
  25.4402375  80.9836674  44.2484760  26.8814588  80.8335304  43.8110590
  46.4617364   7.2993897  59.0382528  46.6204636   7.2482823  58.0956888
  47.3319165   7.4071836  59.4221735   5.8851093  38.8489842  49.4198704
   6.7555279  39.1740370  49.6499634   5.4464161  38.7228370  50.2612162
  29.9409842  28.0386639  36.8810964  30.3307581  28.8283491  37.2562027
  30.3691006  27.9410458  36.0305548  42.3785210  68.5097361  18.2746851
  42.8699875  68.3995819  19.0886617  41.6154480  69.0309429  18.5242927
   3.4942511  65.5282307  53.5253859   2.7242330  65.0795269  53.1761456
   3.8900486  65.9524918  52.7640820  70.9264843   5.9783792  14.1236985
  71.2563984   6.5307092  13.4149551  70.3253405   6.5441274  14.6082401
  39.9196696  71.1705780  24.2334223  39.9570751  70.2397823  24.0133071
  38.9859891  71.3813019  24.2252302  70.0922863  19.0721845  37.7719402
  69.1546528  19.2408799  37.8647780  70.4106752  19.7865438  37.2200751
  52.0024936   7.3627137  47.8374672  52.9546277   7.2721433  47.7991343
  51.8151323   8.1443070  47.3176241  44.1272593  58.8858414  27.4528599
  44.6117496  58.3360386  26.8370557  43.8577509  59.6447659  26.9355297
  53.6114931  65.2931643  47.3880196  53.7909985  64.4782305  46.9190979
  54.4069099  65.4584217  47.8942156  52.4247742  62.1087980  41.6370678
  53.0477715  62.8224230  41.4997768  51.5688276  62.5020504  41.4669371
  20.3210354  60.9749985  34.6803761  20.8095098  61.4501476  34.0081716
  20.9480381  60.3414297  35.0292206  10.1553877  73.8553346  34.2681646
  10.9706266  73.4944553  34.6165633  10.1915844  73.6670239  33.3303666
  18.4922743  20.6147099  20.2836609  18.9759004  21.2993431  19.8214746
  18.1455445  20.0554729  19.5884883  40.4737329  57.5472069  39.1048336
  40.4658127  57.8863621  39.9998975  39.9440789  58.1706190  38.6077833
  66.4911048   8.5702561  69.5699739  67.3870198   8.5499810  69.9063587
  65.9890143   9.0155458  70.2525139  72.3230545  -0.0398780  51.6734314
  71.6443960   0.5074929  51.2784004  73.1449787   0.3907727  51.4384508
  50.3053045  62.6315784  23.4208465  49.9659348  62.4962759  22.5361133
  49.5859003  62.3706532  23.9958334  55.1202051  22.3133325  23.3437634
  55.9840338  22.1303796  23.7133050  54.7084205  21.4532899  23.2601571
  57.6860563  20.0071191  17.8705180  58.3470432  20.6930589  17.9643953
  57.6174204  19.6196126  18.7430751  48.2800150  77.8332758  37.1275258
  47.6340818  77.1292210  37.1850944  48.9083004  77.6393652  37.8231454
  51.2994051  72.7710962  43.6396217  51.9851398  72.3727322  43.1036139
  50.4818487  72.5076056  43.2172441  26.9123244  58.4739590  39.8133445
  27.5304222  59.1713095  39.5945120  26.0606027  58.9097023  39.8438668
  68.6754724  19.4007037   5.0688090  68.8670560  19.5213101   4.1387619
  69.1553732  20.1044676   5.5054344  71.2521307  27.4372529  43.7777853
  71.4340202  26.6012715  43.3485079  70.4497139  27.7510404  43.3607721
  63.6046934  63.4357786  29.6111202  64.4914865  63.7866497  29.5291281
  63.0340719  64.1894674  29.4608951  13.7239945  54.1770220  38.8862681
  13.0181408  53.5538435  38.7140703  13.2748914  54.9845648  39.1360950
  55.9038877  46.3422441  16.5995657  55.3594065  45.5988932  16.3403237
  55.9914589  46.8645811  15.8022404   0.2195494   3.0287980  29.0569186
  -0.6157930   2.7572106  29.4372892   0.8427756   2.9702519  29.7810674
   4.4630682  64.1944647  29.9181485   4.1006976  64.1821766  30.8040214
   4.0864730  64.9772930  29.5161653  22.0057964  36.5808535  40.0859737
  22.6691270  36.5604997  39.3961859  21.9787478  35.6837869  40.4187965
  49.1487829   0.0800084  49.1880035  50.1054518   0.0893830  49.1575432
  48.8864045   0.8711862  48.7174368  37.4834800  63.7463951   6.2369275
  38.1571364  63.3522558   6.7910689  36.6602349  63.5490561   6.6836417
  26.3067722  73.6521006  35.8528590  26.1129665  72.7625847  35.5571723
  25.6254220  73.8441133  36.4971614  25.2312756  73.8302708  56.3225555
  25.5058622  74.0618944  55.4353237  24.5316267  74.4508743  56.5264416
  58.0884504  72.3374319   8.7956285  58.7894630  71.7856646   9.1425645
  57.6750994  72.7157402   9.5716810  85.5876715  60.1142098  70.0798014
  84.6530683  59.9078061  70.0677686  85.7378085  60.5926491  69.2644571
  76.7140865  35.3369522  32.6827002  76.3990270  34.5940304  33.1975198
  77.2372734  34.9407959  31.9858742  61.8349028  66.3365078  48.7880468
  62.0410824  66.2163544  47.8610706  61.7980480  67.2859287  48.9041090
  66.7273681   2.2374677  35.7195520  66.9681661   1.6434335  35.0086546
  66.5019981   3.0575894  35.2804112   3.2449546  40.7580280   3.6803603
   2.6360860  40.7342815   4.4185653   2.9717538  41.5196466   3.1689608
  14.8934829  37.1334076  19.7537673  14.2186999  37.6684284  20.1716828
  15.2369595  37.6863122  19.0519452  33.4134817  67.2506428  27.2859216
  33.2951260  66.4924479  26.7137623  33.5909534  66.8746710  28.1481194
  60.0794554  64.3660021   3.3682048  59.7201109  65.2506447   3.3010477
  60.3478384  64.2853451   4.2834634  31.5239606  55.9371445   8.4493126
  31.0987935  55.6517575   7.6406016  31.0635743  56.7407296   8.6912645
  37.7404857  41.1453915  20.2149391  37.4637818  41.8544340  20.7953882
  36.9225407  40.7624626  19.8978126  11.0925102  37.3092723  43.8724804
  10.5923522  37.9567051  43.3755827  10.4320109  36.7050457  44.2114210
  36.3467979  74.9889374  64.9419498  37.0971012  74.5800734  64.5105457
  36.0109901  74.3126678  65.5302715  16.9786863  46.9406175   7.6605070
  17.8926699  46.8336820   7.9240006  17.0158116  47.0650815   6.7121595
  20.5212831  76.6262722  45.5956459  20.3798509  75.6856441  45.4886627
  21.0630536  76.6991758  46.3813972  32.3414397  62.4185991  29.1561937
  32.6001883  61.8937492  28.3986878  31.3881397  62.4770641  29.0927076
   0.5017369   6.1025476  29.3110538   0.1619809   5.2211427  29.1563725
   1.4397614   5.9760427  29.4536757  60.6991529  64.8772430  31.7312002
  60.2695704  64.8230553  30.8775306  59.9808168  64.9867439  32.3542881
   4.1161642  28.9209149   3.6979355   3.8101682  29.0121720   4.6003069
   4.8860726  29.4874356   3.6476530  48.5053587  78.0463648  19.5283151
  49.4035101  77.9308176  19.8384905  48.1098175  78.6483002  20.1587510
  83.7086908   7.6594876   8.2407969  83.4503690   7.9041528   9.1294140
  83.3589903   8.3587884   7.6886010   0.3774541  15.8426999  56.2872791
   0.4295199  14.8897981  56.3615036   0.7366078  16.1672353  57.1130610
  66.5609455  63.7765884  58.0368090  65.9366035  64.0154743  57.3517132
  67.1163034  64.5499992  58.1350279  -0.1579158  26.7337395  65.3840916
   0.7566698  26.9169785  65.5990110  -0.1368539  26.4490677  64.4704454
   5.7852572  74.1387272  34.0550852   5.0451350  74.2463636  34.6524644
   5.4019392  74.2199755  33.1817579  19.1241777  50.7133341  36.0686541
  18.4260595  50.8033705  35.4199958  18.7275243  50.2090406  36.7789960
  50.5503416  44.9873686  13.1364286  49.6505547  45.2619267  13.3131707
  50.7338858  45.3195477  12.2576797  78.7330779  37.8159783   1.9003739
  78.3163508  37.3813079   2.6444401  79.5967254  37.4080489   1.8376507
  31.8049359  55.1341105  35.2137756  30.9703326  55.5941772  35.3032804
  32.1663547  55.1190281  36.0999942  24.7646666  39.2752767  21.4884663
  24.2884612  39.3809867  22.3120475  24.3167758  38.5558391  21.0434580
  46.6221952  65.5675650  38.3744860  47.5485086  65.4823446  38.1488609
  46.2828112  66.2123108  37.7537203  69.8645966  16.7241048  61.5932083
  68.9435188  16.9811105  61.6355562  69.8699181  15.9420537  61.0413074
  12.9877913  63.0178928  11.2083340  13.2859683  62.4598598  10.4900563
  13.6285233  62.8745556  11.9048595  33.8806891  74.4624615  50.2017975
  34.7189188  74.1428471  50.5356359  33.2414222  74.1913748  50.8606482
  83.4208147   3.5701608   5.4075843  83.8694422   3.5560845   4.5621446
  84.0310423   3.1442975   6.0096598  30.1809788  39.6096706  14.2303383
  29.2542791  39.8493123  14.2361283  30.1868629  38.6711860  14.4186020
  16.0209692  63.0358410   9.7164553  16.8790698  62.6172256   9.6482176
  15.3976476  62.3098326   9.6916014  50.0578753   4.2635297  55.7669926
  50.3249495   3.7540864  55.0018978  49.1734259   3.9547299  55.9635210
   3.6667651  68.3206034  19.8652780   2.7627915  68.4710169  20.1417565
   3.5886541  67.9084158  19.0049100  32.0983815  32.7097631  22.0461845
  32.9006600  33.2189560  22.1615243  32.0550275  32.5410247  21.1049724
  82.4286889  81.6312218  55.3518677  82.6099088  82.3478699  55.9599829
  82.5688660  80.8376026  55.8683491   4.8731368   0.6998395  17.4150085
   4.2205374   0.9848069  18.0546498   4.9651854  -0.2403403  17.5693607
  25.2964544  58.2541132  47.8106594  25.2187300  59.1457367  47.4712420
  25.1310158  58.3399725  48.7495375  39.8358369  65.0221395  43.2160521
  38.8877487  65.0835228  43.3326340  39.9504161  64.3702507  42.5245714
   8.1744044  25.1229714  38.7968063   9.0405886  25.4796361  38.9936423
   8.1167882  25.1472425  37.8416514  37.3894326   3.3412885  42.2314978
  36.9615064   3.2517003  41.3799763  37.6532940   4.2605352  42.2714233
  38.2366310   7.5865315  36.8339157  39.0676872   7.3329591  36.4323211
  37.6279436   7.6599359  36.0988355  33.6240625  34.7683430  20.2347493
  33.1237721  34.2431641  19.6101487  34.5378590  34.6319866  19.9845243
  70.2133440  71.8040133  59.5891047  71.0910308  72.1054411  59.8237133
  69.6281730  72.3053122  60.1570034  43.3539820  63.7382030  43.7398243
  42.4582195  63.5340881  44.0084791  43.8871622  63.5320377  44.5075798
  14.8515296  72.6076221   5.1530552  14.2188466  73.1882954   5.5758595
  15.1062000  73.0711842   4.3552551  78.9623677  52.2723913   3.1091830
  78.5206174  51.5793037   3.5998109  78.2552730  52.8490925   2.8199282
  29.0034771  57.8649473  24.6097994  29.9036717  57.6305771  24.3840623
  28.8829541  58.7385988  24.2377257  39.8499250  74.1651297  51.0622120
  39.7261500  75.1142216  51.0740423  39.1791463  73.8435984  50.4597998
  34.6453905  34.2149091  13.7401640  34.6953130  34.1518998  12.7863455
  34.0857267  34.9745965  13.9010477  21.5822339  75.8520174  64.4331551
  21.4957309  76.5265560  63.7595463  21.6092515  76.3384247  65.2571154
  11.3503373  75.7562828  36.1572027  10.5372608  76.2374830  36.3107800
  11.1271393  75.1193428  35.4784369  81.8740919  64.7421122  11.2832832
  81.9980478  63.7949514  11.2219882  82.6606574  65.1129866  10.8832860
  26.0886312  68.7878990  40.6796026  25.7581401  69.2025805  39.8827052
  27.0142984  69.0297508  40.7092524  32.5143027  63.8840389  40.3927612
  33.1135988  63.1397486  40.3370380  32.6996875  64.4000769  39.6081805
  56.1602020  67.3367023  23.4184551  56.0529852  68.2788181  23.5494256
  57.0904922  67.2265577  23.2218385  60.4896633   0.1181935  25.0158215
  59.9774353  -0.5019237  25.5347657  60.7300822   0.8074521  25.6349802
  59.8207155  72.4358251  69.1094862  58.8891473  72.2938301  69.2775723
  59.8952523  73.3773711  68.9540321  45.9804535  72.0270634  52.5536394
  46.7347574  71.6416597  52.9994154  46.3576794  72.6858568  51.9706059
  57.7204029   1.5894555  24.7251701  58.3049504   2.2210073  24.3060184
  57.8800098   0.7690476  24.2585969  27.6916385  65.6214523  50.8416986
  26.8344021  65.4126883  51.2129021  28.1751084  64.7960520  50.8763838
  36.6660039  25.5590867  13.3980513  37.0869498  24.8299359  13.8534260
  36.3332335  26.1193036  14.0992355  48.8653421  50.7560778  48.5856056
  48.5417128  51.4310265  47.9889965  48.3453894  50.8702660  49.3811178
  66.0490942  64.6458197  55.2061081  66.2842369  65.4966211  54.8358727
  65.0931072  64.6222878  55.1641130  42.8355169  63.5051107  33.7323713
  42.3929310  62.6607656  33.6461759  43.6314583  63.3089685  34.2265725
  66.1863796   4.5416307  18.3745229  65.8600633   4.3648767  19.2568541
  66.9335429   3.9520024  18.2729053  21.7807102  75.7781792  61.4294624
  20.9810781  76.1484385  61.0556555  22.4835324  76.1170721  60.8750010
   7.5982690  42.1180058  16.8376017   7.4978697  41.6536379  16.0066283
   6.7093992  42.3852205  17.0715654  24.1563232  14.3855237  39.2923117
  23.6950092  15.0315713  38.7574840  23.5314803  13.6673402  39.3923950
  27.9565671  30.2698754  46.5386009  28.1630745  29.7659349  45.7514381
  28.5774473  30.9982919  46.5264034  44.7759104  62.0228195  41.5682650
  45.5070877  62.6212788  41.4150858  44.5581675  62.1423769  42.4926710
  12.7061925  30.8222268  10.3353752  12.9110560  31.0881112   9.4389500
  13.0598387  29.9358056  10.4090275  20.2042913  59.7554159  29.7400761
  19.2545271  59.8738289  29.7275591  20.3382897  58.8609600  29.4266605
  12.3624945  55.4808664  35.4911017  12.2080040  55.5712700  36.4314175
  11.4923465  55.3403330  35.1178384  71.4419181  21.3227869  66.1418180
  70.8699090  21.9651534  65.7218103  71.1374111  20.4780127  65.8103661
  39.0281034  56.7600203  13.2438481  38.2999492  56.6386700  13.8531899
  38.8409972  56.1574650  12.5240207  50.5818653  61.1004686  29.5043492
  51.1140728  60.7536364  30.2203727  49.8230028  60.5183125  29.4662237
  58.9014149  58.5114098  23.3605123  58.2470274  58.2176828  23.9943385
  59.6818781  57.9967785  23.5661006  66.6214145   1.5182949  65.3111367
  67.2554232   1.6186787  66.0211991  67.0949371   1.0354830  64.6337150
  28.8437565  31.0670926  68.7414412  28.0395611  31.1931063  68.2378350
  28.5444363  30.9288670  69.6400697   8.7255663  63.1676245  32.5067091
   9.4333106  63.0772352  31.8686199   8.0949295  63.7505484  32.0839477
   6.9815171  66.8067598  24.9743962   6.8820935  66.0751534  25.5835772
   7.0064092  67.5828314  25.5341506  79.1977441  50.5151224  24.3339944
  79.2250871  49.8822451  25.0515938  79.1515350  51.3671684  24.7677231
  37.4943590  60.1292229  32.2721171  37.9217744  59.6900702  33.0074358
  38.1134248  60.8093119  32.0066571   4.8837178   3.7909173  68.4969664
   5.8133500   3.5656594  68.5326481   4.5666020   3.3731317  67.6962662
  60.3648178   5.7911634  27.9838061  59.9960272   5.1882886  28.6293817
  61.2681953   5.4961633  27.8692579  35.8492804  48.5429049   8.8056570
  35.0944495  48.1761217   8.3452970  35.7977653  48.1695986   9.6855551
  68.5391108   2.9213571  18.3344436  68.1721656   2.1949624  17.8305256
  69.4856398   2.8400373  18.2173741  65.6806040  75.4593277  39.3157411
  65.1248980  75.4262733  38.5370731  65.2398252  74.8926020  39.9487972
  71.7949505  46.4789368  40.7315408  71.8264289  46.9439961  41.5675793
  72.5703580  45.9177853  40.7402764  83.0485344  73.5187292  24.8124409
  83.8830185  73.1889343  25.1457858  83.1451321  73.4960175  23.8603973
  24.5599365  77.6457596  43.7046099  25.1932454  78.3609772  43.7647438
  25.0059319  76.9736195  43.1892967  35.2523713  14.8367642  43.5580873
  34.6683936  15.3728055  44.0946150  36.0537402  15.3551435  43.4851170
  36.3614106  62.9186678  48.9035368  35.8496857  63.5880184  49.3577814
  37.2524047  63.0329800  49.2341280  22.0397925  56.4979410  17.4672604
  22.6501465  55.7720232  17.3378730  22.4697614  57.0604658  18.1114054
  55.8815241  60.1233435   8.4685069  56.7844963  59.9448586   8.2057911
  55.3672695  59.9739790   7.6751173  32.4451828  48.7084103   6.5590531
  32.7860522  48.1025219   7.2170335  31.5961981  48.9843130   6.9045031
  19.7665918  64.2900181  33.3551478  19.1662073  65.0270939  33.4669089
  19.3499994  63.7402773  32.6914716   5.2433187  59.5981932  17.1051610
   4.9125496  60.2446222  16.4815009   5.6020933  60.1197815  17.8231156
   6.6259968  80.7132339  23.7657404   6.3562703  81.5965843  24.0170908
   6.2546802  80.1476479  24.4428468  60.5686951  67.4146509  27.2562408
  60.8720112  66.7067194  26.6878510  59.8215294  67.0423365  27.7245975
  68.6055009   2.6238393  28.0292344  68.0027573   3.2662534  27.6547599
  69.1989986   3.1411504  28.5736394  32.7795148  73.6776590  24.1927028
  33.6245799  73.6482048  23.7441182  32.2035003  74.1453218  23.5879469
  73.5454409   1.8697595  45.1125145  73.8509552   1.2464665  44.4534254
  74.2488901   1.8965386  45.7611084  70.8635561  14.0356683  14.8112917
  71.2171022  13.8292359  15.6765234  69.9178020  14.0942334  14.9467444
  50.6243960  19.8800420  50.7778358  51.0837023  19.3988179  50.0895786
  50.1808612  19.2027520  51.2885046  70.4985046  62.9272270  25.0978541
  69.9058104  62.3332119  25.5583882  70.0244331  63.7579870  25.0614738
  44.3728065  62.9943609  24.6492767  45.2009964  63.0770445  24.1765285
  44.1163969  63.8960552  24.8427463  37.8199635   9.1958951  24.8722172
  37.5228904   9.7010564  25.6290460  38.5022752   9.7375344  24.4755912
  39.2844725  70.4752207  59.4283152  39.6219754  71.3570929  59.2713881
  38.3600473  70.5257750  59.1851854  61.2458961  18.4983205  28.1506491
  60.5395596  18.2846688  28.7602973  60.8739774  18.3302926  27.2848082
   3.9097445   1.5792607  24.6439576   3.4414475   2.3611306  24.9365640
   3.2280057   0.9146260  24.5453477  21.6740952   2.8943299  16.4578700
  21.7266749   3.1035375  15.5252922  20.9040396   3.3713101  16.7672884
  75.5370323   8.1963300  24.9759054  75.7435743   9.0171289  25.4229569
  74.9245302   7.7518987  25.5620456  46.4455938  74.4474316  14.0223336
  47.1026087  73.9403868  13.5453951  45.6090975  74.0650654  13.7572038
  50.3206491  58.1757975   6.5753961  50.9687757  58.8789845   6.5343118
  49.5344162  58.5512829   6.1790645  55.0180904  24.4973134  59.4585085
  55.8218519  24.0863179  59.7767496  55.1815335  24.6547269  58.5285950
  37.7533531  42.2958612  12.0831931  38.5268450  42.8355503  12.2465301
  37.0147038  42.8912354  12.2102988  58.6056471  58.6239910  40.4678583
  58.2170630  57.7501631  40.4271317  57.9209185  59.2061949  40.1386023
  55.2846734  20.7877683  10.4719901  55.0828354  21.3448476   9.7202200
  55.1056973  19.8985910  10.1661050  27.7195287  65.5054855  37.2318292
  27.9985046  65.6546879  36.3284230  26.9178867  66.0205269  37.3231149
  63.0350224  12.3367642  58.9980888  63.3497254  12.4698686  59.8922253
  62.1786944  12.7640771  58.9794731  60.3210258  58.4354782   5.7699698
  60.2344084  57.6156282   6.2563527  59.4419050  58.8139963   5.7800812
  42.3550653  69.9974680  21.8994093  42.8678179  70.8044481  21.8535972
  41.4665794  70.2894878  22.1032548  10.4022253  66.8503475  45.4699183
  10.4239297  67.1410847  46.3816404  10.3606105  67.6601171  44.9612236
  51.8203275  18.1102227  22.7813554  51.2683718  17.7923345  23.4958649
  51.3283007  17.9011106  21.9873691  64.9612522  71.9170427  17.7757490
  65.6447506  72.5153399  18.0775774  64.1533470  72.2676516  18.1507111
  53.4056234  41.0267115  19.4525361  53.4139824  41.2758446  20.3767085
  54.2757368  41.2647629  19.1324246  60.4287974   6.4607667  25.0117183
  59.5731036   6.4316987  24.5837283  60.2694790   6.1138104  25.8894825
  47.2551823  76.8696928  51.1890173  47.5961971  76.0303497  50.8800793
  46.3474369  76.6852283  51.4302778  84.5151138  77.1644640  27.6820898
  83.6076546  76.9596577  27.4566984  84.5328999  77.1519184  28.6390424
  13.7478583   8.6420869  23.9268160  13.0598538   9.1765832  24.3232965
  14.1682952   9.2239904  23.2936835   6.3649981   8.3935975  10.7761085
   5.8177607   8.2833909   9.9985385   5.9242861   9.0743398  11.2846327
  70.4636518  10.3094434  33.3284783  69.8251669  10.9905767  33.1171989
  69.9547998   9.6357869  33.7795687  57.0436494  14.7650861  51.8741751
  57.7073805  14.7624539  51.1844778  56.3668911  15.3609895  51.5530252
   8.6126840  56.2993526  35.8769131   8.0370224  57.0475197  35.7185125
   8.1090236  55.7281733  36.4568377  79.7246449  31.0155725  47.1965218
  80.3223650  30.3275632  46.9039345  79.2996876  30.6497048  47.9722738
   3.8114779   5.7329225  70.2512503   2.9074328   5.4366635  70.1455593
   4.3017237   5.2474546  69.5877600  12.0657897  72.4131298  25.5957437
  12.5390804  71.5855932  25.6817937  11.2737012  72.1864843  25.1084447
  29.4732485  12.8202390  36.4417100  30.1439427  12.8388738  35.7590294
  29.9586659  12.6546525  37.2499061  36.7142415  62.4102354  28.0703449
  36.5215540  61.4726925  28.0812073  36.5652847  62.6958275  28.9717197
  72.5678389  19.6214532  49.5213175  73.1363050  19.3259954  50.2325010
  73.1017439  19.5261334  48.7325907  25.8431150  11.0471677  17.3686349
  25.6805880  10.3660249  16.7160463  26.7966395  11.1238526  17.4024320
  32.4767844  18.3933019  63.1960583  32.1409963  19.2734479  63.0262566
  31.7886506  17.9691934  63.7087297   1.8951798  73.4128475  47.3282528
   2.0489693  73.7701511  48.2028484   1.9610119  72.4646997  47.4418974
  83.6203615  12.3063134   8.3431077  83.5284368  11.9178723   7.4731112
  84.2671434  13.0024003   8.2274932  82.5395195  30.9726285  67.7312565
  82.8516857  31.7788838  67.3204756  83.2895462  30.3790616  67.6943064
   4.8311608  19.2828893  33.4509134   4.8854106  20.1910924  33.7483120
   5.7423537  19.0151547  33.3314323  40.3143032  62.3250367  64.3940912
  40.9444292  62.9256989  64.7920518  39.6291073  62.2243859  65.0548564
  63.1426239  65.0528049  55.5428743  63.0545092  65.1035070  56.4946604
  62.9745531  64.1336012  55.3354073  34.2225814  54.6969557  16.7903411
  34.6125817  54.4633722  17.6327014  34.5325851  54.0213251  16.1873007
   7.6842492  27.3116445  54.6096182   8.1987374  28.1021356  54.4463396
   7.8587001  27.0973825  55.5260706  61.1207867  55.2476549  26.4795589
  60.6463242  54.4186401  26.4174962  61.9966984  55.0006866  26.7762303
  63.4004442   2.0468473  30.2317977  64.0779035   1.7907952  29.6059251
  63.4233181   1.3640260  30.9022164  25.7375407  50.7663584  50.1520252
  26.5037608  51.2687111  49.8749352  25.9828568  50.4058123  51.0041189
  52.0103805  23.6999177  30.2887273  52.7012007  23.0373811  30.2951789
  51.7480318  23.7634610  29.3703747  78.2659571  46.6229962   9.4770122
  77.7917044  47.2105931   8.8887495  78.1366245  45.7522058   9.1012090
  63.3882618  52.8801394  60.5757856  63.2391024  51.9894648  60.8930969
  64.3369198  52.9969501  60.6270885  50.7562344  12.7600144  42.0604992
  50.1064054  12.5754212  41.3823557  50.4791038  13.5954045  42.4367380
  74.1264479   4.6527337  52.8749800  74.4024412   5.5688809  52.9021454
  74.3938963   4.2967938  53.7223387  38.8153291  55.3058481  22.7929235
  37.9820204  55.2440023  22.3260140  38.5901141  55.7057333  23.6329246
  85.1387064  10.6388902  16.6237688  84.5000021  10.7342576  15.9172308
  85.8991091  10.2343034  16.2062454  14.8288207   8.6261319  28.8341069
  14.2479686   7.9948377  28.4094739  15.4556159   8.8705682  28.1532168
  78.8072721  27.5809716  28.3815193  78.6966412  26.6336297  28.4624577
  78.8885490  27.7330350  27.4399781   6.7379022  68.8693953  26.8888831
   6.1719000  69.6326828  26.7737198   6.5207469  68.5395670  27.7608299
  44.7447968  79.5836544  18.2276428  45.6865692  79.6399593  18.0660093
  44.5179319  80.4276085  18.6181653  59.9070971  12.4323510  33.4810781
  59.9341504  13.2763814  33.0304027  58.9985125  12.1437882  33.3948278
  77.0226948  27.6250981  33.6758113  76.9253914  26.9887208  34.3841767
  77.5767080  27.1838903  33.0318904  37.3365617  81.5130234  54.0814972
  38.1334782  81.9590092  54.3682957  37.1762753  80.8521652  54.7551537
   0.6617873   2.0605516  21.6722965   0.3028910   2.2246980  22.5443506
   1.3829510   2.6843976  21.5887713  52.6542902  70.5461788  42.2420454
  53.5637903  70.2617168  42.3321962  52.1488094  69.7333717  42.2339010
  48.4836054  75.9883213  56.9971657  47.8656721  76.3063717  57.6553726
  48.1889153  75.0987625  56.8020391   4.8886864  25.8409070  36.5501165
   4.1771118  25.5959462  35.9586000   5.6481616  25.9517812  35.9781575
  62.1219508  17.5970792  31.4016819  62.2075145  17.9626893  30.5212045
  62.4312727  18.2932805  31.9812131  49.0631151  71.7248774  28.7931514
  49.7958183  72.3350382  28.7090540  49.4132662  70.8869648  28.4906101
  71.2031452   5.7078218  42.0523739  71.9003241   5.4771089  42.6663351
  70.7663004   4.8774480  41.8629837  85.8453505  19.1747903  63.2032299
  86.5326826  18.9948510  63.8446569  86.0300343  18.5757493  62.4798536
  42.0979555  46.4858033  62.8816835  42.1940382  47.3244454  62.4303810
  41.1727293  46.2630822  62.7788137  11.6250842   6.1290406  40.4680634
  11.6318362   6.5317201  41.3364124  11.9842284   5.2528047  40.6075859
  49.6854250  26.6960858  16.2862015  50.4613296  26.1557721  16.4354181
  48.9726583  26.0666226  16.1767685  35.9432767   3.5941457  17.8895378
  36.0943793   3.7752770  16.9618583  36.7081635   3.0874204  18.1623185
  22.5891685  55.8241940  69.9828100  21.8253398  55.4907656  70.4535818
  22.9617882  56.4839649  70.5676937  51.9414616  77.6951408  23.3156610
  52.4393034  77.6005793  24.1277218  52.0334959  76.8486691  22.8783464
  76.2729788  77.4119186  17.7306318  75.9411764  76.5241718  17.8649497
  76.9448137  77.5208950  18.4036803  19.4645500  58.0468750  33.2509804
  19.6984267  58.8721132  32.8261042  20.2361655  57.4919415  33.1374645
  65.8155815  11.9280767  12.1879590  65.7583944  10.9899377  12.0067132
  65.5346386  12.3467683  11.3743269  19.8834133  73.0231476  34.7244310
  19.5429969  73.8837719  34.4801569  20.2595043  72.6759434  33.9155817
  60.0663964  21.5974092  16.8254113  60.2719824  20.7063150  16.5427339
  60.6461303  22.1535348  16.3049638  69.5676422  67.9286575  48.3711958
  68.7030554  67.9065609  47.9610300  69.4023418  67.7171516  49.2899799
  60.8344507  77.4029589  27.2904253  61.3664055  78.1985998  27.3049712
  61.0346699  76.9658184  28.1181049  57.7480976   4.4903611   8.4850514
  58.4748308   4.4065045   9.1023475  57.2924773   5.2866124   8.7582272
  78.8120501  18.2882546   2.1873131  78.0650560  17.8142118   2.5527018
  78.6848442  19.1928147   2.4733751  53.9229155  66.0084963   7.9360616
  54.6039438  66.6698933   8.0584836  53.1030083  66.5019178   7.9586887
  31.2569857  78.7405968  30.9191275  31.8425798  79.1987562  30.3163004
  31.8421507  78.3290291  31.5550733  83.4894363  13.2532262  15.1345515
  82.6855366  13.7417363  15.3115845  84.1398279  13.9265584  14.9349248
  14.9296975  64.0471888  48.6759710  15.7797754  64.4772291  48.5828781
  14.9340820  63.3609533  48.0086708  70.9204054  56.9546986  58.9838743
  71.6334391  56.4862108  58.5499048  70.3234339  57.1926117  58.2744646
  42.9063368  78.9103794  50.7868767  42.1947813  79.2858028  50.2682400
  43.2735682  79.6546173  51.2638283  33.5596967  80.9932995   4.3990591
  34.2352009  81.0941887   5.0696927  32.7743006  81.3752651   4.7908390
  18.4896231  75.2529764  37.2288418  17.9600668  75.7030821  37.8870249
  18.0760133  74.3949175  37.1345329  17.9492927  74.7188950  55.6925964
  18.4617901  74.6589279  54.8863792  18.4584916  74.2275333  56.3371992
  76.3429014  46.5086888  43.3844376  76.6423027  47.3052262  43.8227510
  76.9690363  45.8369206  43.6544657  78.0835144   5.3591870  57.0901108
  77.2627632   4.8869466  56.9501543  77.9835407   6.1674642  56.5871906
  29.0118599  71.7663097  10.1132584  28.8507152  72.4808168   9.4970262
  29.4797206  71.1079311   9.5995706  82.7218914  75.8232641  31.3998222
  82.9121685  76.5148735  30.7660222  81.8351364  75.5361223  31.1820006
  59.4369221  74.6575594  24.2583299  60.2165794  74.6031761  24.8109651
  59.7037983  75.2065182  23.5209966  30.7413363  75.2409649  60.5124140
  31.6585803  75.1793909  60.7790613  30.7564044  75.7880735  59.7271252
  68.9953701   4.3242692  13.2126594  69.2425673   3.4363221  12.9544425
  69.7751896   4.6742772  13.6434841  56.4677334  54.3494940  43.2824469
  56.2620449  54.5986414  44.1834736  55.7071447  54.6340084  42.7757025
  17.9182518  52.8897572  21.3762546  17.9757500  52.2793674  22.1113396
  18.8240325  53.0045080  21.0888076  12.3332214  75.0449276  26.9530559
  11.7587173  75.1048708  27.7163267  12.3155200  74.1187191  26.7121100
  43.3475916  19.2401837  41.0356712  42.9108207  19.9742269  41.4676952
  43.1034295  18.4756040  41.5572453  29.0671372  79.5710182   8.1335390
  29.0539861  80.5115509   8.3108813  28.2376671  79.2491102   8.4865069
  16.1152458  66.8085241  14.9676681  16.0208285  67.6040792  14.4438243
  16.9151652  66.3985825  14.6385670  81.4925234  28.2787942   9.3871903
  81.8640224  27.3978280   9.3412274  81.2290709  28.3802175  10.3018153
  49.7404139  11.0439347  23.9613843  50.3148047  10.6721543  24.6307731
  50.0175397  11.9572305  23.8883519  23.0365062  70.0752640  49.2315245
  22.8135061  69.1656017  49.4290495  23.0914569  70.4997349  50.0876999
  21.3997507  80.9367180  12.9086792  22.0666575  80.4221249  13.3632755
  21.8946791  81.6053486  12.4351597  16.8886626  80.1328468  29.4572091
  16.2188482  80.0178719  30.1312733  17.3926687  80.8930397  29.7475791
  40.9844844  12.0697736   5.8353168  41.3324885  12.2500371   4.9620304
  41.5803043  11.4154958   6.2002200  15.9089884  37.9591725   4.2392124
  16.4811692  38.2064507   4.9656405  16.3457331  38.3063386   3.4614243
   1.3518851   6.1806535  42.0597172   1.6896384   7.0550965  42.2533989
   0.4764216   6.1709260  42.4466324  66.4424936  12.9357194  24.2997670
  67.1774928  12.4382161  23.9412975  66.1064379  13.4359216  23.5560632
  67.9974954  11.0768460  22.9299808  67.7573792  10.1947640  22.6462293
  68.8759033  11.2119912  22.5745010  70.3279583   4.9695157  33.3775854
  70.1742832   4.0779256  33.6901355  69.7975723   5.5200147  33.9536667
  16.9941315  15.1077769   9.8816837  17.4525866  15.9471629   9.8431172
  16.5266451  15.0516818   9.0482916  57.4272387   7.2491883   8.8029575
  58.1978766   7.4986791   8.2929587  56.8467681   8.0082082   8.7466854
  29.0804005  68.2307339  61.0635328  29.1834521  68.9491129  61.6876650
  28.3949137  67.6805973  61.4425945  13.7343018  14.6588277  22.0369029
  13.0723994  14.4962453  21.3648319  13.6089652  15.5762433  22.2795320
  52.3496523  36.5270875   0.5992808  52.1338394  37.3134587   0.0980105
  51.9830021  36.6890166   1.4685215  65.6798267  60.5100870  34.8093891
  64.7872877  60.8063936  34.9877429  65.9385872  60.0390387  35.6014681
  31.4054775  79.5838451  36.4822602  31.0707164  78.7194061  36.7208362
  32.3240638  79.5674658  36.7508936  45.6656647  65.3749657  12.2480738
  45.8748388  64.4704628  12.0149434  46.3451004  65.6240702  12.8746080
  49.0347068   5.8361863  51.1791515  49.0753238   6.7157029  51.5546846
  48.1352751   5.7522153  50.8625984  54.7934748   5.8516809   4.9547543
  55.4730536   5.4516241   4.4122042  54.7294451   5.2792188   5.7192291
  76.5696089   4.1639375  14.2721069  75.8428900   4.0662431  14.8873830
  76.9029324   5.0466203  14.4333363  28.0687642  79.6970463  41.6241646
  27.1492314  79.7879887  41.3743210  28.3148813  78.8240910  41.3182163
  74.3011236  31.7805648  66.0866404  73.5195541  31.4957261  65.6130934
  74.5764256  32.5789952  65.6361437  78.7714903  34.7980546  48.3642244
  78.8733809  35.7391309  48.2219791  78.9937107  34.6697663  49.2863894
  43.8161898  67.8375769  20.7424712  43.1209040  68.0447006  21.3668966
  44.6190739  67.8556395  21.2633228  43.8236761  59.5137167  43.4988832
  44.1555834  60.1665163  44.1152573  44.5075274  58.8447094  43.4672308
  34.8213629  13.5659265  14.1031277  35.3073172  13.9045667  13.3511949
  35.1075272  14.1090249  14.8375535  86.4423077  44.4957017  69.1884279
  85.8358471  44.2098378  69.8715925  85.8779184  44.8355817  68.4940386
  73.5978357  18.6178350   8.6544508  74.1082088  18.4009885   9.4346607
  73.3188669  19.5226907   8.7945837  80.1737253   5.2923059  43.8251972
  80.2468531   4.3498086  43.6749029  79.7143642   5.6230020  43.0532789
  40.0391285   7.3446607  32.6647401  39.8049967   6.4276456  32.5215411
  40.4634194   7.6135682  31.8499422  39.9126410  80.9549141   6.4504158
  40.0944948  80.5175018   7.2821808  40.4960632  81.7137527   6.4462829
  22.2825885  75.1346970  31.6548872  22.8093076  75.7180786  31.1085701
  21.4297628  75.1055813  31.2212133  43.4957409  73.4213972  46.2707186
  43.8553858  73.5521126  45.3933382  43.9700842  74.0459490  46.8195057
  67.3776929  -0.1026298  37.2298336  66.9938628  -0.2191783  38.0989265
  67.0042507   0.7191514  36.9113135  42.2889280  59.5901823  20.1117444
  42.5927782  59.6961594  19.2102575  41.3432646  59.4649553  20.0325966
   6.1340706  42.9234647  12.0893013   5.5870478  43.4298467  11.4888179
   5.5104582  42.4503182  12.6401806  25.5944824  62.1418715  40.4236984
  25.5227208  62.9383802  39.8977256  24.6912026  61.9252396  40.6547594
  39.1253666  13.4724378  10.5965257  39.1853957  14.1666555   9.9402606
  39.1855793  12.6607560  10.0927532  73.1374931  45.9175014  32.6726317
  72.3838091  45.6223392  32.1616769  73.1489420  46.8674612  32.5556707
  45.9941769  40.6227350  66.6486406  45.3025246  40.4642153  66.0062075
  45.7744646  40.0499296  67.3833895  69.4452715  65.1334620  37.3073864
  70.0620270  65.0040674  36.5868950  68.5834551  65.1142883  36.8912959
  85.5988543  33.8259172  26.2460208  85.5520527  33.3051156  25.4442620
  84.7642700  34.2936181  26.2768841  36.1651659  65.9338284  21.9118929
  36.0436416  65.3443527  22.6561952  35.6675339  66.7179728  22.1436501
  54.5745277  75.4423237  20.9912348  55.4808283  75.2496386  21.2315035
  54.6107960  76.3153315  20.6003666   4.9882725  56.8433714   1.7335223
   5.0408989  56.4258623   0.8737857   4.2118186  56.4581966   2.1397105
  80.7164947  31.1291551  53.9252710  81.5712826  31.3699197  53.5680532
  80.7944719  30.1962613  54.1249037  55.0964729   5.6203984  43.0842495
  54.8398010   5.1454686  43.8746881  55.7985584   5.0919675  42.7046871
  58.6026812  50.3778172   3.5801324  58.4642029  50.2040434   2.6490808
  59.3123960  49.7866106   3.8311568  29.2334270  66.2494802  34.9242258
  30.1297355  65.9230089  35.0034690  29.2330027  67.0701408  35.4169178
  56.8515746   2.0659398  11.6892028  57.3242800   2.5307511  10.9987509
  56.1373798   1.6211080  11.2328231  71.0748522  13.1754731  43.1302881
  71.1647121  14.0532254  43.5013866  70.1361839  12.9927396  43.1720161
  23.6549385  52.8882195  65.5031828  23.1104048  52.8225304  64.7187106
  23.0473383  52.7463223  66.2290753  59.6126620  14.4597673   6.4093947
  58.7454550  14.0974282   6.5907615  59.6849172  15.2129888   6.9956195
  54.4692087  54.3131256  41.5658617  54.5673180  54.6919680  40.6923151
  53.5314703  54.3721914  41.7486048   6.3367754  75.6879950  20.6282830
   5.8336002  74.9435139  20.9581232   6.8554813  75.3268671  19.9094188
  34.3025510   1.5236234  45.1992559  33.7291170   1.8282270  45.9025526
  33.7432597   0.9654569  44.6590042  38.9371014  73.9883614  63.9467239
  39.2528868  73.1532812  64.2919111  39.2287827  73.9963675  63.0350828
  27.3625207  73.0347490  26.8365788  26.4155865  73.0400133  26.9762778
  27.4895453  73.5457802  26.0372353  85.1171915  29.6079110  21.0881376
  84.1889851  29.7081136  20.8769011  85.1273100  29.3657540  22.0141459
  35.9924086  44.7793175  70.0197026  36.6705807  44.3694855  70.5566899
  36.2315901  45.7058884  69.9978719  30.8462334  75.0783348  11.4820921
  30.7658982  76.0132551  11.6710484  30.8874536  75.0296879  10.5270171
  81.1825983   3.6955022  39.4823670  80.8684818   2.8314256  39.2160368
  80.5192272   4.3029069  39.1549110  39.9789739  80.9267044  27.4814963
  39.6505022  81.3275051  26.6766977  40.4164076  81.6416168  27.9438639
   3.0493642  58.0303955  31.2747383   2.8186036  58.2982302  32.1642590
   2.2077180  57.9069567  30.8358359  71.1544649  15.7681512  44.3482208
  70.5908672  15.9946393  45.0880098  71.1965315  16.5687703  43.8252640
  12.7795832  16.3795423  34.1600251  13.1618779  15.8211373  33.4830785
  13.0248492  15.9589528  34.9841475   7.6213925  27.8238534  20.2610779
   7.9345124  26.9628285  20.5382466   6.6981595  27.8356408  20.5135345
  73.3591883  28.4691094  27.9798126  72.9497330  27.9986333  28.7059212
  74.2199175  28.0611753  27.8851271   6.0323627  63.8495327  62.9238151
   6.5445288  63.6887719  63.7163268   6.6811712  64.0995003  62.2659431
  48.6841297  17.6983380  30.8955622  47.9034376  17.3585308  30.4582047
  49.2998314  16.9654572  30.8901310  76.7272758  80.2793980  35.7362485
  76.2088013  79.4750977  35.7589316  77.6338816  79.9821997  35.8135104
  58.9058924  70.9723949  39.0191603  59.5199156  71.5587854  38.5771751
  58.3907127  71.5473938  39.5850182  84.5756149  72.4666691   5.1720327
  84.6840096  71.5205860   5.0750309  85.0681019  72.8403521   4.4412464
  57.8458555  39.9185826  69.7508830  57.6948889  40.5065895  69.0108205
  58.4926279  40.3735711  70.2902385   6.0395950  77.5950623  27.6565194
   6.1205256  76.8547916  27.0551181   5.8765578  77.1935558  28.5100079
  41.3088758  35.7013585  66.5823837  41.3847263  34.9728466  65.9661485
  40.3677900  35.7911183  66.7324747  68.1942026  13.3573007  39.5384836
  68.1243221  13.6461019  40.4483986  68.4104340  12.4267720  39.5984697
  15.0122914  10.2804682  22.0381226  15.2713904  10.7526133  21.2468113
  15.6592545  10.5395816  22.6942791  11.5482557  80.5652523  60.5308533
  12.0030320  80.7620335  59.7118950  11.1836553  79.6902227  60.3980684
  63.1994478  19.9259137  29.5386696  64.0242688  19.4402169  29.5393991
  62.6153867  19.4052457  28.9873052  67.3129074  14.6681356  33.4565663
  68.0978267  14.7159146  34.0023232  67.6467506  14.6134423  32.5611377
  84.2173187  33.6236714   3.3843830  84.5296328  33.9084386   4.2432213
  83.8505785  32.7532147   3.5394183   4.0024464  13.5634755  45.6379938
   3.0878871  13.5740327  45.9203148   4.3492549  12.7395581  45.9802008
  41.1277799  29.6110486  16.9810534  41.9217674  29.2671155  17.3903537
  41.4183192  30.3963040  16.5171623  50.7054631   0.7157754  34.0186048
  50.6673090   0.6789254  34.9743342  51.5327780   0.2892541  33.7953091
  57.1745412  29.2886590  43.1470585  57.6306478  28.6066579  42.6540327
  56.4309184  29.5275258  42.5937033  62.4111414  72.3500156  19.7265816
  62.3496532  72.9906416  20.4351377  61.8109512  71.6501093  19.9837410
  83.7158291   7.4150132  38.1258368  84.3279354   7.9657029  38.6139941
  84.2644875   6.7343759  37.7360392  25.5524962   8.2823514  20.1793885
  26.3208716   8.8235330  20.3608799  25.4769747   7.7099084  20.9428310
  58.9446632  13.1380700  35.8469391  58.4142916  12.4060773  36.1617732
  59.2089669  12.8799771  34.9639010  32.5411485  21.1625146  62.4480677
  31.9166775  21.4433812  61.7792034  33.1939475  21.8620538  62.4751043
   4.7368081  71.6836811  63.4208898   5.2623518  70.9503724  63.1010424
   4.7556408  72.3211552  62.7070950  79.7762243   9.1326951   1.1761491
  79.7204678   8.9584016   2.1156937  79.1272633   9.8189878   1.0209398
  54.0873003  60.4916334  18.8520753  54.2524624  61.2059593  18.2366967
  54.5022297  59.7284412  18.4500790  28.5224915  76.9128180  54.8781633
  28.3743405  77.0621538  55.8119631  28.8416982  77.7530193  54.5489264
  47.1092796  80.9984303  43.6693048  47.6188087  80.5179882  43.0167866
  46.9469595  80.3601265  44.3638897  56.2905359  80.5037022  23.0995750
  56.7324686  81.1159801  22.5113201  56.1988258  79.7015190  22.5854564
  56.6976547  73.3220816  58.2762718  57.1942997  73.2597733  57.4603701
  56.9808245  72.5640106  58.7875175  34.5195961  66.0654116  41.7594767
  33.9323521  65.5418396  42.3046780  33.9535403  66.7308426  41.3682985
  56.5094471  72.4797058   3.3627874  56.2039614  73.1935215   3.9225900
  56.0766029  71.7002058   3.7110025  23.9482880  81.5062618  32.9969120
  24.2823172  80.6104755  33.0440211  24.6448302  81.9991207  32.5631404
  63.7568776  15.3588628  25.8821177  64.1396729  16.1901330  26.1626291
  63.7828462  15.3937768  24.9259090  84.5518963  53.0102109  20.2622008
  84.3326656  53.8076734  20.7441092  85.2138321  53.2874726  19.6287942
  66.0341930  71.4427280   2.8938499  65.9411764  72.3189592   2.5199521
  66.4267635  70.9233427   2.1921678  69.8343126  20.2895402  42.8700352
  69.7652857  20.6800889  41.9988632  70.1920645  19.4156884  42.7131081
  48.0196524  69.3237734  54.9501181  48.3302689  69.5620251  54.0766287
  48.0270815  70.1463270  55.4395866  75.8896915   7.2211694  28.2047057
  75.1248734   7.3332643  27.6401544  75.7349817   6.3911008  28.6555672
  10.2164087  65.2595208   7.3490824   9.5739493  64.8812268   6.7487730
  10.8968625  65.6160901   6.7780556  51.9046704  19.4407414  29.2923856
  52.5530331  18.8347959  29.6511102  52.3026244  20.3052949  29.3944049
  14.4021504   6.1135148  38.3716297  14.1277211   5.3139829  38.8207006
  15.3281825   5.9719800  38.1750083  77.8552675  81.4292145  19.2481935
  78.6793327  81.6105652  19.7001421  78.0040121  81.7262840  18.3504987
  64.5848696  33.4713029  14.0793324  64.5214455  33.7052106  15.0053418
  63.6793487  33.3216714  13.8075280   7.6203196  19.4921445  50.0592518
   6.6909449  19.4486665  50.2841997   7.6818555  20.2141999  49.4338799
  49.6419907  72.0336342   2.8167060  50.0851250  72.8278208   2.5181589
  49.8004293  72.0113182   3.7604383  83.9019639  78.1720407  30.4861522
  83.9516289  78.3274678  31.4293408  84.4522674  78.8543660  30.1016641
   0.8734806  80.6920280  38.3899283   0.6609638  81.1590124  37.5818491
   0.7202991  79.7704709  38.1813622  61.6633944  79.3218730  36.7187834
  62.4696020  79.6571838  37.1109915  61.0319997  79.3147854  37.4381733
  51.6272354   4.1724369  30.2145672  52.3834133   4.7517702  30.3083634
  52.0029926   3.2930911  30.1722741  78.2203252  69.0647520   8.7286538
  78.6003167  68.5073603   9.4077361  77.4181802  68.6119855   8.4682709
  29.7052704  42.8321097  58.8418399  28.9571221  43.4035274  58.6686705
  29.9419375  43.0162414  59.7508596  46.4289076  53.8765908  42.4992943
  45.5122502  54.1121627  42.3562002  46.4052243  53.2511402  43.2235050
  15.9637892   8.3552760  14.0115094  16.2378299   8.1280589  14.9000514
  16.6303504   7.9629493  13.4475875  63.4229375  80.2462875  53.5274744
  63.3288843  80.5272016  52.6172686  64.3653519  80.2785561  53.6919308
  25.0231576  11.7851233  22.6239181  25.1519275  10.8806920  22.9096651
  24.8141980  11.7145753  21.6924715  86.0945338   0.3641456  53.2429409
  85.8054897   1.2751934  53.2946825  87.0317508   0.3989756  53.4343624
  18.1755736  73.6071327  66.3561676  17.3983314  73.6191490  65.7976143
  18.2910397  72.6851632  66.5861131  31.1479259  22.4673200  36.4251900
  31.8270040  22.7945137  35.8352494  30.9643817  23.2023692  37.0102072
  69.5589120  75.7077516  21.4043760  70.2505953  75.0905825  21.1658216
  68.9785225  75.2071322  21.9777513  28.6035466  18.0561638   2.8966898
  29.0793467  17.2662914   2.6398844  29.2644358  18.6089373   3.3137017
   4.6073735  31.8683386  65.4012680   3.8027325  32.3864627  65.3830433
   4.9407139  31.9120026  64.5050478  76.9496756  14.7487187  35.1650572
  76.1152362  14.3154442  35.3445482  77.3794048  14.8038328  36.0185957
  36.9671082  10.5716002  20.3026628  37.3675990   9.7383773  20.5508137
  37.0569038  10.6062818  19.3503153  79.3945105  38.2938243   9.6484751
  79.3122871  38.8558389  10.4189336  80.1874668  37.7821923   9.8087490
  12.3609757   4.0408039  50.3761864  13.0682886   3.5608283  49.9454165
  12.0975077   3.4772778  51.1036873   4.8243912  81.8852180  13.8890803
   4.8172672  80.9669475  14.1591930   5.2770861  81.8832888  13.0456972
  46.8996572   7.0896918  15.7840228  46.5047788   6.2245286  15.8926296
  46.2027454   7.7022827  16.0191357  58.4121128  66.4250577  70.8932352
  59.2368403  66.1275280  70.5091333  58.5209209  67.3710156  70.9909868
  86.3502009  81.2588000  32.1215916  87.2631271  80.9719712  32.1445608
  86.3675053  82.0728722  31.6183829  15.5229211   7.3168921  44.5505047
  15.0618970   7.6798618  43.7942362  15.0226879   6.5346742  44.7831726
  73.6011516  14.1134930   8.2987243  74.5578992  14.1321075   8.3215326
  73.3823132  13.1890833   8.1812173  15.7517059   8.6106659  69.3040116
  15.0777967   8.4686638  68.6392473  16.5445812   8.8039853  68.8038055
  37.9442644   2.1347296  18.7008870  38.2993865   1.8714333  19.5498836
  38.0752635   1.3708425  18.1391513  21.1238432  18.9539158  30.6343389
  21.1313176  18.0176520  30.4353786  20.9172130  18.9987493  31.5678954
  37.9508781  35.3708816  46.0169220  37.5499320  34.5083427  46.1241817
  38.5528851  35.4488707  46.7570162  68.1878486  51.7603006  65.4427986
  67.5965348  51.1204018  65.0464283  68.1535879  52.5146248  64.8545365
  14.4268282  76.8893901  19.8950016  14.8228510  77.5376976  19.3126810
  15.1674994  76.3833995  20.2290845  69.1047644  30.5277157  37.2090697
  68.6045956  29.7690368  36.9082880  68.7370049  30.7314253  38.0690026
  20.9450443  72.9310114  38.8871956  20.6084354  73.8000591  39.1055584
  20.5401905  72.3488379  39.5301580  75.8212144  53.5085894  29.7550154
  76.0277374  53.9018036  30.6029320  75.8673067  52.5652862  29.9108577
  31.0470867  21.7410946  21.0958791  31.3956666  20.9332418  20.7189226
  31.1442471  22.3914003  20.4002547  72.0057082   5.1552081  17.0839345
  72.3653185   5.1341504  16.1971045  71.1631536   5.5996794  16.9902408
  26.5612150  53.0704322  68.6044575  25.9110480  52.3683884  68.6299260
  26.3778722  53.5372116  67.7891450  29.9420714  42.5532198  28.4371305
  29.8866010  41.9556618  27.6914263  30.7533145  42.3070002  28.8815331
  70.8385677  78.0110160  31.8921757  71.1550064  78.9004157  31.7338514
  70.7668347  77.6234878  31.0198760  77.4683125  24.0465428  67.6014237
  77.8306801  23.3752276  67.0232735  77.0448012  24.6687533  67.0100473
  24.1636777  35.3576899  33.5274720  23.4616899  34.9006963  33.9907217
  23.7509680  35.6818557  32.7269602  80.8946937  54.7207260  41.7300653
  80.4333275  54.6971321  40.8917236  81.5209400  53.9986038  41.6792107
  24.0418601  54.1762733  17.1715581  24.2021871  53.7327099  16.3386250
  23.7340021  53.4837961  17.7563095   0.2117105  41.6380501  35.1655626
  -0.0572701  42.5095606  35.4559946   0.8349436  41.8031216  34.4580579
   0.3795490  26.2390637  19.5431197  -0.2751507  26.0167313  20.2050638
   0.5604032  27.1678519  19.6876121  25.4531574  22.2496891  24.0810633
  25.7287002  21.3704872  23.8216138  24.6371794  22.1126938  24.5623565
  68.5788364  80.7469290  34.2756224  68.9789231  81.5406604  34.6308041
  67.8726704  80.5400933  34.8878145  13.8859968  51.3601504   2.2263016
  13.1652920  51.2649726   1.6035999  13.4628193  51.6204690   3.0444588
   5.3950357  24.3558931  59.8031569   4.9080020  23.5337210  59.7478104
   5.4117835  24.6853089  58.9045811  47.6885333  46.0151478  62.7001409
  47.2362914  46.5313985  63.3673708  48.3109739  46.6260811  62.3057310
   3.8041931  39.7705889  14.9743319   4.3895507  39.4502544  15.6606078
   3.4529787  38.9774394  14.5696151  17.1758473  18.3652949  51.2274122
  16.9866264  18.6028326  50.3196669  17.3463237  17.4238551  51.1980820
  83.4744191  36.0170865  17.8205645  84.2303418  35.5389977  18.1615114
  82.8864127  35.3352213  17.4956930  18.5533774  35.0275183  31.2626457
  18.2813144  34.1577339  31.5553737  19.3937778  34.8819971  30.8281541
   1.7555578  12.8204514  63.7598561   1.4091690  12.6998974  64.6440022
   1.0616978  12.4979092  63.1847380  82.7768978  64.1851711  24.9997306
  83.5391756  64.2742825  25.5717659  82.7249055  65.0219631  24.5378757
  57.7966800  40.8395695  61.7382769  58.3545604  41.3080154  61.1173414
  58.1344095  39.9439348  61.7352442  66.9578790  19.2901337  13.6493504
  66.9484889  19.1506302  12.7024174  67.1631407  20.2193546  13.7525296
  11.9046187  63.8312864   1.9241726  11.1470795  63.4928465   2.4014798
  12.4288690  63.0553913   1.7257302  55.2989005  44.8480463   6.8192649
  55.7146859  45.5748606   6.3554817  54.7444152  45.2690077   7.4762022
  31.8867346  81.2607791  55.1972400  31.3552800  80.7487275  54.5876573
  31.7760974  82.1667459  54.9087737   0.3785452   4.4734627  12.5872695
  -0.4435091   4.6732312  13.0350983   0.5661380   5.2568579  12.0702267
  25.2785945  48.7555981  31.5876555  25.7447052  47.9356623  31.4243031
  25.3689575  48.8988876  32.5297451  21.1550784  13.8603091  29.1197681
  22.0331335  13.4811080  29.1579485  20.5825067  13.1191754  28.9219999
  73.7470622  77.5053830  39.2064929  74.1710968  77.2888101  40.0368643
  74.0826614  76.8551246  38.5894275   4.8266441  60.4640675  46.1292124
   4.7308359  60.6683064  47.0594501   3.9608166  60.6312370  45.7568836
  73.2611513  43.4082699  12.3979044  72.9947531  42.5822067  12.8014910
  73.1015014  44.0673447  13.0734563  86.5971914  20.8898997   1.5011550
  86.4202765  21.6633964   2.0365402  87.1744931  21.2064600   0.8063567
   2.7791831  50.2586555  53.2259226   2.3098783  51.0849571  53.1109810
   3.6738729  50.5197001  53.4441328  22.1252656  36.9724131  14.1547394
  21.9620252  37.1295428  15.0847363  21.7237544  36.1209154  13.9816117
  75.7850861  63.9133120  29.9056840  75.9755706  64.8028994  29.6080565
  75.2046704  64.0314484  30.6576085  36.0014745  68.3252003  50.0083671
  35.4843870  68.4881165  49.2194997  36.8814918  68.6281564  49.7847186
   1.3477904  37.2356439  35.5280590   1.2181446  38.1335950  35.8331871
   2.2910737  37.1665454  35.3808379  41.4414454  25.9480739  46.3406181
  41.0257149  26.7774200  46.1048508  41.5815020  26.0104465  47.2854614
  86.2956160  40.7555962  25.5334616  85.4652616  41.0729456  25.1784468
  86.5721372  40.0728703  24.9221897  63.7325302  77.2894766  65.7198875
  63.2357874  77.7552750  66.3925768  63.2643595  77.4739435  64.9056266
  59.0699328  80.5739042   4.4230208  59.8517237  81.1011573   4.5874572
  58.3631398  81.0517382   4.8570141  29.2703319  68.1397963  46.5687370
  28.7392163  68.5170221  47.2700548  29.4299197  68.8695240  45.9701872
  16.1828887   0.4417395  49.4420528  16.1061049   0.0288874  48.5818815
  17.1012533   0.3221577  49.6840000  31.4773273  21.3873601  11.4001310
  32.4320507  21.4005399  11.3325858  31.2787199  20.5525160  11.8241858
  12.8142250  21.6912913   1.1664175  12.8179622  22.6437950   1.2610433
  13.0156636  21.3627625   2.0426157  35.0282860  11.6768181  17.8125298
  34.4096375  12.1760631  17.2793663  35.7946563  11.5662801  17.2497785
  73.3150136  45.2856779  35.8544707  74.1148757  45.3988981  36.3679242
  73.0158614  46.1775112  35.6773329  61.0071717  16.3646771  65.1011304
  61.3173817  15.8761383  64.3386798  60.4759745  17.0708634  64.7332100
   9.8475611   2.6352143  41.1568975  10.7769632   2.8514066  41.0813713
   9.5007575   2.7568901  40.2730703  76.5389759  71.8627311  45.4908562
  76.8216927  71.5703524  46.3573551  76.9724102  71.2638832  44.8827887
  27.4833322  65.4381084  47.9552221  27.6161480  65.7764196  48.8407373
  28.3628535  65.3983068  47.5796080  42.7064085  17.0653105  11.6136634
  43.1360102  17.6582325  12.2302008  43.0051804  17.3575962  10.7525384
  43.4913015  16.9191492  30.0382447  43.2245731  16.1728418  30.5750060
  42.7069378  17.1480584  29.5396376  79.4983351  42.6399565  35.6894875
  78.6982124  42.1819782  35.9469581  79.6278101  42.3987007  34.7722816
  23.0632877  24.9850106  31.1152744  22.5756335  24.2531419  31.4931560
  23.9726830  24.8213434  31.3651586  11.2429011  20.5960822  19.1477680
  12.0699978  20.5048299  19.6208584  11.0907936  21.5404129  19.1112435
   0.6443273  22.8625464   7.7016920   0.3292546  22.5412202   8.5465056
   1.2868437  22.2105145   7.4219424  28.2030487  22.4957418  55.3473902
  29.1241908  22.2527766  55.4406548  27.9460263  22.7991223  56.2180948
  56.9413891  79.4729116  51.9432305  56.8458596  80.3763153  52.2448419
  56.0844508  79.0762308  52.0998572   3.8315341  29.5280457  55.7504606
   3.1455725  29.9862933  56.2359476   3.5826585  28.6049819  55.7978630
  46.9761804  77.5767090  58.5293160  46.2820068  76.9388416  58.6950968
  46.5298334  78.4234478  58.5353719   4.1014135  36.4224887  42.9545355
   3.3181182  36.9684935  43.0220556   4.3398660  36.2324834  43.8618803
  29.7970510  32.7829480  30.1835704  29.9208498  33.7070894  30.4000664
  30.6426620  32.5038433  29.8324609  -0.1500134  34.1075444  11.9612336
   0.7684189  34.1721654  12.2230315  -0.1191323  33.8297772  11.0457432
   7.9977149  45.2378702  32.0469713   7.1879631  45.7471085  32.0122099
   8.6288619  45.8201361  32.4698806  51.0026398  80.7961252  62.8654407
  50.5209532  81.3514211  63.4785090  51.0451570  81.3102891  62.0591770
  23.1284674  77.3296095  20.7354426  22.5656040  77.3965312  21.5067649
  23.9798840  77.6514939  21.0315967  13.9159012  38.2347727  27.9686093
  13.8734937  37.2850037  27.8573799  14.8512566  38.4369373  27.9468966
  73.1896940  77.3919084  54.6699344  72.5107875  77.0771792  54.0730570
  74.0120807  77.2048786  54.2172418  10.9180248   9.3547750  24.8692083
  10.2735794  10.0426018  24.7024298  11.2821734   9.5707971  25.7276726
  25.7935882   3.3764392   6.2328929  26.2413239   2.6595244   5.7836759
  25.1702714   2.9420900   6.8151736  44.5346212  66.2531233   9.8323542
  44.3407249  67.1324635  10.1570022  44.6292210  65.7214737  10.6226909
  31.5620327  40.8652592  50.6361866  31.6220474  41.2129211  49.7463751
  30.8564878  41.3683462  51.0428095  17.9656243  34.9227428  46.6667128
  18.0328250  33.9975882  46.4304829  18.6560798  35.0548196  47.3163748
  37.1282172  13.1129706  60.4470396  37.2124720  13.3887267  59.5343018
  36.5775061  12.3308849  60.4111004  32.4595475  26.1398149  24.5991874
  32.2576952  26.0693908  25.5322075  33.2310677  26.7052221  24.5630574
  35.5692434  19.8358965  20.2510428  35.9886003  19.3143368  19.5666826
  35.6040573  19.2810380  21.0302424  36.7530608  42.3894262  22.5825620
  37.3313117  43.1474495  22.6677632  35.8810353  42.7297163  22.7825761
  59.1629102  55.5545665  14.9222326  58.2538735  55.5618049  14.6225131
  59.5423065  54.7744537  14.5176136  37.9493031  62.6012041  41.1181866
  37.9534772  63.3764412  40.5567370  38.7812748  62.6424982  41.5897261
  16.4507794  13.2272148  32.9704857  16.3115573  12.4849916  33.5586643
  15.5935276  13.6487055  32.9096746  18.1356740  36.7778683  61.2909555
  17.8007233  35.8885741  61.1760902  18.3699059  37.0615864  60.4072857
  86.1068484   1.9221097  24.3794394  85.1533795   1.8737857  24.4486761
  86.3590200   2.5957224  25.0110126   1.8997908  62.2367907  11.7927599
   2.6705563  62.7120113  11.4824080   1.1812589  62.8632545  11.7062473
  76.6224038   1.2679017  39.6291876  76.8224924   1.1129601  38.7060475
  75.6763231   1.4121167  39.6482706   6.3013315  47.8839636  12.7314281
   7.1210796  48.3731031  12.8020453   6.2811190  47.5801468  11.8239474
  28.6658740  29.3509483  54.7441673  28.3101630  30.2227616  54.9163389
  28.4800768  28.8547373  55.5413389  16.4432275   2.1320671  31.7940736
  17.3052096   2.5446683  31.7394900  16.2420368   2.1205266  32.7298212
  25.8129954  50.4603100  29.4183540  25.6964636  49.7424698  30.0407290
  25.6739163  50.0586700  28.5606980  36.0197282  54.0932608  18.8147235
  36.3940716  54.8624372  19.2442167  36.5312958  53.3578920  19.1520214
  20.6524301   7.0629513   8.1758904  20.5812836   7.2896922   9.1031224
  21.5518594   6.7517829   8.0737418  46.8796411  60.2285673  62.5774358
  46.7527178  60.6876066  63.4077404  47.4144652  60.8248761  62.0534019
  22.9356670  22.3458052  42.7707338  23.3912468  21.6088676  42.3637867
  22.0256186  22.2492385  42.4901676   7.0474482   9.5002508  45.6495905
   7.7967244  10.0959098  45.6467295   7.1656734   8.9704323  46.4379692
  52.7988139  76.0999658  59.1842793  51.9485727  76.5211155  59.0579747
  52.6799145  75.5471828  59.9566303  12.2617221  37.1862674   1.6459465
  12.2259045  38.0969715   1.3534327  11.4339125  37.0499969   2.1068081
   3.9483950  13.0159032  25.3174973   4.8851803  13.1427085  25.4677820
   3.6286342  12.6132965  26.1248946  59.7989845  10.0618029  18.2786000
  59.9955272  10.8890092  17.8389060  60.2110934   9.3948418  17.7294528
  33.7898850  41.4376974  21.9758081  34.1558099  40.9456730  21.2407970
  33.4575033  40.7663441  22.5716591  71.8729312   4.9894501  58.2764362
  71.1462386   4.4549681  58.5965572  71.6273196   5.8869006  58.5011206
  32.1160054  18.3118939  58.2146597  32.4458289  17.4737799  58.5387182
  31.5319848  18.0768204  57.4936247   2.2999922  67.0194390  68.5425302
   3.2204262  67.2515848  68.6655703   1.8411747  67.4779513  69.2464366
  60.4449725  63.9831972  59.7005606  59.5871209  63.9854908  59.2759228
  60.4143190  64.7236490  60.3063822  77.3258319  55.2968159  70.1993027
  76.7122712  55.9801891  70.4690689  77.8399005  55.6992235  69.4992781
  64.4644132  56.6822126  65.2367352  63.7881556  56.1964884  64.7645275
  64.7378483  57.3669448  64.6263192  60.7141377  61.2147094   2.3752667
  59.8480346  60.8109594   2.4307923  60.5375362  62.1336878   2.1739674
  20.0151587  43.5621738  20.1069236  19.5477962  44.3435144  19.8114371
  19.7963369  42.8927231  19.4587064   5.0713497   5.0196356   0.5671099
   5.7804763   4.4810498   0.2159730   5.4014599   5.3303063   1.4101656
  34.4241834  16.4529645  19.9200988  34.5565343  16.6432548  18.9913869
  34.8075366  15.5846322  20.0436711  15.0522375  33.7565827  11.7839277
  14.3994486  33.0799007  11.6044867  14.6201420  34.5760679  11.5431547
  22.3089170  44.5069122  56.6663837  22.0015883  44.0121841  57.4260044
  22.8439856  43.8835669  56.1750793  70.0870147  75.6018760  50.5215464
  70.2500167  74.7362211  50.1469718  69.4371333  75.4476645  51.2071882
  10.0273466  41.1597633  17.7650368   9.2788315  41.6717434  17.4587226
  10.3102779  40.6653738  16.9957757  17.7151430  22.7414131  47.1323919
  17.1114445  23.4842277  47.1348429  17.7357578  22.4465251  48.0428028
   9.5507684  68.1707861  24.4324861   9.3230048  69.0027811  24.0175901
   9.0001133  67.5242641  23.9908777  58.3238744  42.7542543   0.4204840
  57.9175734  41.8879604   0.3943561  58.5391378  42.8901100   1.3432175
  11.3291001  38.8060999   6.9412947  12.2305727  38.5690379   6.7236233
  10.9292138  39.0252972   6.0997045  25.4603195  18.0402625  22.0059156
  25.0969744  18.8964987  21.7799258  24.9402261  17.4177039  21.4978266
  54.7744297   8.2278883  48.2842970  55.1408982   9.1039574  48.1641483
  55.3024840   7.6673406  47.7158117   4.9574009  53.1415653  20.1478815
   4.8998654  53.8856649  20.7472420   5.8968663  52.9967451  20.0353456
  37.3943973  27.1743417  37.3448277  36.4793301  27.2818923  37.0853662
  37.3612499  27.0484114  38.2931304   9.5007813  13.7859166  21.4160657
   9.1805530  14.6745706  21.2612081   8.7900275  13.2194722  21.1157322
  69.8563766  47.6510811  46.7227888  70.7085800  47.2269201  46.8231297
  70.0651371  48.5608721  46.5108252  80.1464207  74.0132810  30.1989460
  79.6105463  74.6318180  29.7024751  79.6576340  73.8696016  31.0092998
  54.2940521  35.6994486  57.7928209  54.0413761  34.7952986  57.9796457
  55.1254272  35.8157086  58.2527447   4.2606384  30.3091264  19.3688190
   3.7401524  30.1204777  18.5879624   3.6666119  30.7948732  19.9410212
   1.3452828  24.8466253  29.5897484   0.6946316  24.1671634  29.4130659
   0.9549920  25.6483126  29.2416048  42.6146798  61.2238644   0.2502836
  43.3642022  61.1308359  -0.3377567  42.9790334  61.6198252   1.0419239
  18.8962805  29.7651243  29.2512417  19.7347772  30.2109838  29.3710923
  19.0353048  29.1921711  28.4971690  24.8435998  28.6285973  17.7662385
  24.2201877  28.8364816  17.0702696  25.0869441  27.7169299  17.6053631
  27.5364883  78.8459215  69.4072342  27.0788534  79.5561386  69.8571157
  28.3424576  78.7245191  69.9091434  56.2821641  27.2433247  58.4832202
  55.5892077  27.8976073  58.3940123  55.9346238  26.4653733  58.0470560
  65.7738542   8.3751231   6.9321388  65.7708263   7.8133547   6.1571300
  65.5238008   9.2385119   6.6031021  66.9280947  67.0275021  30.5618453
  66.1057747  67.4796034  30.3730965  67.5882615  67.5157965  30.0699306
  39.5662308  47.2116518  20.2392006  39.1607833  47.9165983  20.7440686
  39.9974251  47.6568508  19.5097482  35.5910659   8.3870202  13.4573817
  36.4270949   8.2927132  13.9138854  34.9305654   8.2506073  14.1366172
  49.1185998  10.3642869  56.0886383  49.9134802   9.8312366  56.1045313
  49.1299152  10.8360851  56.9214106  25.3020438  72.3994615  48.7566791
  24.4706711  71.9257381  48.7314282  25.0754174  73.2626965  49.1026531
  24.1145277  25.9823298  51.7216015  24.6549821  25.8822465  52.5052595
  24.5779991  26.6313910  51.1923122   7.2056782  23.6636281   3.8111091
   6.9005531  23.9401603   2.9470134   6.9766551  24.3907309   4.3899894
   1.3703950  15.3147293  65.5769412   0.7008298  14.6532513  65.4027043
   1.9752272  15.2436139  64.8384617  83.0253928  37.4873853  27.6609039
  82.3658549  38.1225538  27.9398370  83.4259766  37.1845341  28.4757924
  55.6039407  14.1241242  60.9600250  54.7772024  14.3557192  61.3832264
  55.9446521  13.3974005  61.4815824  73.5429461  81.0901043  47.1302700
  73.0240853  81.5964462  46.5052652  73.1246943  80.2292786  47.1469164
  40.8705378  14.2489183  44.3136215  40.0205231  13.8142657  44.2444324
  41.4107609  13.8261747  43.6460304  50.8722210  45.9077740  19.8911583
  50.1874399  46.5762043  19.8687005  51.5325165  46.2204599  19.2727172
  11.8439460  34.2652655  17.3423445  11.9681585  33.8865185  18.2126057
  11.3880575  33.5843444  16.8476307  13.7598443  34.9566054   0.6506135
  14.1832221  35.0847554   1.4994721  13.4783542  35.8331585   0.3885990
  29.0202961  80.6568720  49.0919672  29.4640530  81.5033986  49.0399752
  29.0619282  80.3095033  48.2009946  46.5620327  41.0589933   8.0772686
  46.9292641  40.2624416   7.6940250  47.2553349  41.3924122   8.6468256
  68.5596020   0.0602795  55.7967983  68.5462041  -0.3676914  56.6528903
  69.3866284   0.5420090  55.7827674  31.5221953  73.9378786  43.9553881
  32.3042583  74.3585920  44.3126154  31.5430355  74.1471100  43.0215693
  69.3692743  11.1715770  16.6338480  69.7564303  12.0371950  16.7644119
  70.1181793  10.5940676  16.4860082  81.3361030  55.7152557   5.7895535
  81.6254287  56.6062069   5.9863544  80.8863615  55.7898951   4.9478927
   0.3704055  36.2437154   6.5994436  -0.2424495  35.5337001   6.4083362
   0.7008727  36.5121175   5.7421321  49.5652985   5.6238979  34.6848154
  49.5042013   6.4476025  34.2010689  50.1321673   5.0714958  34.1465378
   6.5185030  77.0787133  24.0943766   6.9057019  77.3505745  23.2622695
   7.0068915  77.5674487  24.7568297  25.1965141   1.7708696   8.6350250
  25.7022405   1.1224326   9.1249251  24.8293805   1.2817690   7.8986657
  23.9631104  16.6844893  28.5466075  24.0402555  17.6313531  28.4294295
  24.0374160  16.3268173  27.6618600  11.7776275  61.8739700  13.3529568
  11.6677785  62.4947214  14.0732574  12.0872331  62.4081707  12.6215160
  23.4784341  13.5962105  33.2173491  23.5986876  13.2381034  32.3378444
  22.6856160  14.1286659  33.1528187  13.2675564   7.6764017  50.3568935
  13.6194086   7.0684958  51.0071898  13.3323514   8.5360408  50.7728910
  79.8268969  71.4275397   8.4130198  79.4821555  70.5355943   8.4556508
  80.6032140  71.4112760   8.9727539  13.4800363  53.6619186  53.9750719
  14.2762554  54.1348648  53.7330246  12.7678287  54.2591763  53.7464380
  27.4295163  27.2808671  37.0707846  26.9127488  27.6744318  36.3677287
  28.3320761  27.5314522  36.8737435  30.2057648  27.9993272   3.4715542
  29.4878340  28.6165071   3.6126199  29.8681259  27.1622658   3.7902379
  13.3978844  31.6139627  44.0610361  12.8268707  32.3707294  44.1932440
  14.2841446  31.9636083  44.1533518  12.4678755  44.4647312  41.4857006
  12.0152378  44.8979950  40.7620764  11.9381368  43.6889315  41.6693830
  85.4660503  24.2407465  31.8940711  85.5106387  23.4079409  31.4243126
  84.5333054  24.3686056  32.0669055   4.0051690  41.2192726  19.1328144
   4.4237554  41.8869638  18.5894835   3.0971926  41.5112019  19.2139983
  65.7106200  47.6186957  67.8226362  65.3722635  48.3977183  68.2640771
  65.0315585  47.3888757  67.1883716   3.9333215  52.3361614  45.7042347
   3.7802377  53.2809462  45.7175575   4.8187843  52.2320630  46.0525904
  11.8315041  18.8132954  34.9988508  12.0578015  17.8913200  34.8764443
  11.9393754  18.9637518  35.9379768  30.7100893  59.0936532  64.6363853
  31.6441482  59.2952778  64.6921866  30.4332047  59.4704523  63.8011669
  81.1307054  34.8988080  15.8702922  81.3362705  34.4548011  15.0475943
  81.0501968  35.8220077  15.6305981   7.7733791  48.5313702  16.4141393
   7.9499674  47.6762152  16.0220170   8.6224526  48.8222265  16.7468667
  36.9800305  29.7180128  12.4859810  37.8499985  29.6875310  12.8840518
  36.5369606  30.4388428  12.9335606  75.9915244  27.1524572  19.9677598
  75.5879318  27.0864105  20.8331990  76.4602029  26.3250613  19.8582745
  30.5558872  15.7306492  38.0368757  29.6430850  15.6813753  37.7529788
  30.9109855  16.4878464  37.5712705   5.4629445  74.6343040  31.4777446
   5.9266222  73.9838362  30.9503698   5.3161341  75.3670502  30.8796144
  60.8704996  20.5425262  20.6945562  60.4271984  19.7661126  20.3526592
  61.5402746  20.1958299  21.2839913  36.5826353  47.4916764  70.1586816
  36.4264610  47.8169449  71.0452716  36.0455933  48.0530741  69.5995300
  74.6847708  79.3832020  16.7287970  75.1381559  78.5676653  16.9422781
  74.7143383  79.8927293  17.5385749  24.2207003  22.4053383  12.4808002
  24.7772884  22.0886922  13.1922615  23.8593292  21.6109109  12.0876956
  86.0975435  54.6306658  18.7014127  85.3153274  54.9955606  18.2876253
  86.7864417  55.2688313  18.5159516  18.0012977   3.1953025   7.1055704
  17.5690484   3.0449408   6.2648660  18.8652575   3.5356092   6.8731999
  17.2561939  22.8336407  67.4796109  16.3103302  22.7722241  67.3462130
  17.3565205  22.9776026  68.4205899  56.6197419  16.7989230  43.8118410
  57.2178530  16.9337535  44.5469046  56.6391181  17.6270962  43.3322716
  30.8100796  50.2728462  46.3922977  29.9845982  50.2362442  45.9091043
  31.4826679  50.1155663  45.7296371  27.2851896  38.6039448  21.9254279
  27.2686696  38.1023932  22.7405381  26.3830352  38.9020514  21.8093109
   8.7667507  34.6237302  23.3531427   9.3721330  33.9557076  23.0314422
   8.0048209  34.5533943  22.7780366   9.0761846  21.5499949  11.5262628
   8.3822322  21.4374328  10.8766544   8.7723649  21.0579157  12.2890091
  41.5038967  19.9672210   8.0430132  41.0218000  20.7898998   8.1267709
  41.3259935  19.6753216   7.1489334  12.5236094  39.7198057   1.0052314
  11.6067255  39.7782183   0.7366385  13.0116713  39.6751881   0.1830164
   6.8361133  33.8384509  21.5501308   6.7004609  33.0262446  21.0621238
   6.3783878  34.5049834  21.0378265  22.8420019  36.7196226  52.8412819
  23.0915451  37.5363994  52.4090385  23.6232591  36.1696053  52.7833843
  18.5199320  41.8687725  21.7144275  18.7483871  42.7759218  21.9172001
  19.1756630  41.5941858  21.0734510  39.9495673  38.7814260  43.2285929
  39.0057468  38.8450885  43.3748245  40.0512409  38.8653374  42.2805119
  20.6814575  41.6662359  24.4726896  19.7999549  42.0226955  24.5827842
  20.5749011  40.7225609  24.5925140  76.3106270  37.5636841  70.9922979
  76.6700001  37.7520014  70.1253383  75.8710391  36.7194344  70.8911375
  26.5078851  78.2438662  46.5429221  27.2386643  77.6416471  46.4031897
  26.3561159  78.6395361  45.6846414   2.6801550  72.9268885   0.4757458
   1.9548842  73.5495663   0.4258506   3.4660178  73.4678173   0.3979639
  71.5511179  23.7185478  10.4040575  71.6255093  22.9424882   9.8486930
  72.4523926  24.0215635  10.5141652  56.2902489  57.2099032  68.9518870
  56.8012705  56.4236667  69.1440350  56.3367262  57.7280655  69.7553667
  22.0396376  51.1213493  31.8585396  21.7655349  52.0014906  32.1163297
  22.3854208  50.7331514  32.6622605   1.4887269   2.1987416  49.3973242
   1.7500146   2.7507616  48.6602817   1.2146051   1.3749672  48.9942251
  36.5732956  48.7624454  21.7745161  36.3913035  47.8262854  21.8564582
  36.8509078  49.0300560  22.6506162  29.5006084  63.4194613   4.3747887
  29.7398257  63.3870554   3.4485286  28.5949540  63.7293243   4.3775657
   8.8702631  50.7091999   8.3041632   9.3666869  51.4061975   7.8752249
   8.2314485  50.4312801   7.6477265  41.7271323   7.6530577  52.0644270
  41.1983533   8.3788468  52.3958646  41.5067632   6.9163300  52.6344333
  18.9487684  39.0669489  30.8013368  18.2461011  39.6239376  31.1363816
  19.6903026  39.6609068  30.6848264  78.7956762  15.6459391  16.3867414
  78.1012106  15.3650475  16.9826019  78.3346081  15.9209836  15.5942774
  26.1875463  18.9084613  17.7540851  25.7895970  18.0458212  17.8712225
  25.8168101  19.2338645  16.9337809   0.4503713  33.2885432  17.6656878
   0.3229191  32.3419166  17.6033568  -0.2929083  33.5966659  18.1841743
  84.3940576  60.4182053  26.2042403  83.9052596  59.6558332  26.5142417
  84.3267361  61.0523510  26.9180703  40.2870464  30.4605412  19.8147345
  39.5835638  29.8199511  19.9195814  40.4733419  30.4601717  18.8758385
  83.2745424  79.2392447  63.1329112  83.3854833  79.2496302  62.1822189
  84.0468612  78.7773659  63.4591429  54.9952339  65.2058506  20.3771091
  55.3418111  64.3194532  20.4791498  54.8692011  65.5183554  21.2730384
   5.3993386  53.9025927  10.2041304   5.6884038  53.8142586   9.2959070
   5.5335039  53.0341768  10.5837214  30.7732415  60.7720280  21.2874627
  29.8449969  60.9071302  21.0968280  30.9903646  61.4578629  21.9189095
  43.3986521  42.7331161  35.4125881  42.6478624  42.6064873  35.9926844
  43.8732862  43.4721947  35.7930017  35.3852415  51.8604994  36.4582443
  35.6001282  51.1483955  37.0607090  35.3653240  52.6427937  37.0094705
  82.2944076  18.6992146  60.0408195  81.3467057  18.8334967  60.0487517
  82.6073701  19.2433430  59.3181775  46.6394880  61.0328510  65.0848411
  46.0359326  60.3528097  65.3839968  47.3312023  61.0470559  65.7463263
  23.9939840  24.2056824  63.6622159  23.4833820  23.4439017  63.9364551
  23.5239132  24.9540688  64.0298812  12.7933145  60.7368135  36.4662862
  12.0868587  60.7737684  35.8214712  13.0282629  59.8099852  36.5113020
  24.5699978  52.8257561  34.8678160  24.5272684  52.7534056  35.8213210
  25.4620385  53.1238556  34.6899676  39.8779607  39.6650600  48.8590193
  40.7372379  39.9063969  49.2048883  40.0656462  39.2609763  48.0118370
  65.7547248  10.1714207  38.1189023  66.1083836   9.7917200  38.9232550
  65.0427945   9.5824601  37.8688775  58.5554521   1.8730878  34.9542022
  58.4504001   0.9894895  35.3069782  59.5015041   1.9810247  34.8564053
   3.4967955  11.4692904  53.5618053   3.9134081  11.0363175  52.8166877
   2.9126008  10.8056094  53.9285062  37.0022058  35.5658841  33.5579443
  37.0561600  34.8453283  32.9301524  36.4146924  36.1992264  33.1457114
  45.7403421  54.5613909   0.4227732  45.0489426  55.2096033   0.2885341
  45.2725172  53.7408638   0.5780254  59.0137625  27.8815317   7.8308594
  58.4977341  27.7713513   7.0322305  58.4281254  28.3405328   8.4330052
  15.6680393  31.6242027   5.5339867  15.1060712  32.3891306   5.4102570
  16.5558171  31.9543719   5.3958958  22.9331326  35.9526658  44.3099976
  23.7199330  35.7855892  43.7910938  23.1713128  35.6874728  45.1983547
  61.7161576  12.3270368  26.5006328  61.4181535  13.1948613  26.7732143
  61.4146606  12.2434663  25.5960083  24.6899247  35.9631157  28.8083887
  24.4445062  36.5927315  28.1304598  25.3948164  36.3941360  29.2916918
  34.3464351  37.1166420  21.4495325  33.9573717  36.3246989  21.0784650
  33.9669156  37.1819830  22.3258471  75.0516741   4.7410630  19.2581201
  75.0222389   5.4712247  18.6398685  74.4474976   4.0941953  18.8937545
  86.4274167  11.9115388   9.6824127  85.7620007  11.9981122  10.3650236
  86.2628325  12.6473975   9.0927893  78.0744153  22.2650385  55.3931665
  78.7068545  22.9311490  55.1238203  77.6074528  22.0389509  54.5887661
   4.8522121  55.3810978  57.0504236   5.4368699  55.7829714  57.6929998
   3.9818889  55.4489899  57.4430561   5.3644067  36.1992145  26.7181277
   6.2105221  36.6467547  26.7129660   4.7447142  36.8548393  26.3981748
  21.9479966  26.7260337  40.4331732  21.1503243  26.5680575  40.9381437
  22.5521970  27.1259236  41.0586834  72.8464475  69.2899158  63.5528873
  72.9479471  69.1066744  62.6188885  71.9010272  69.2650106  63.7004964
  73.8060052  10.9308506  55.6629430  73.6948020  10.5831076  54.7781037
  74.6611364  11.3606001  55.6456815  33.2473183  12.7462959  26.5319180
  33.3257437  12.5658202  25.5951643  32.3756647  13.1295216  26.6298509
  74.9567218   2.4169327  62.7150403  75.0207312   3.3572556  62.8821616
  75.4799099   2.2778059  61.9256417  50.1930046  38.7839031  20.9891534
  50.0717592  38.9029956  20.0471640  50.0330448  39.6505737  21.3626909
  20.3675866  25.7511830   1.4911400  19.5997834  25.8899450   2.0456272
  20.6941676  26.6323948   1.3093664  50.6152716  45.4270863  68.1558283
  50.4031411  44.8912971  68.9201334  51.4911261  45.7677000  68.3377348
  67.1773815  42.1901226  20.5944014  67.4862671  42.4117708  19.7159410
  66.2428761  42.3967409  20.5789232   5.9236127  55.1203632  41.6452360
   5.4623753  55.7498264  41.0909271   6.2855822  55.6481743  42.3570156
  52.1332836  63.3575535  24.9859214  51.8493938  63.2923174  25.8977246
  51.4682198  62.8769588  24.4930315  30.5917120   6.0653359  37.3189926
  29.6345544   6.0683668  37.3273492  30.8390570   6.7111975  37.9807448
  56.0518256  76.7083242  70.0283030  56.8237558  76.3775303  70.4875756
  56.2673226  76.6157987  69.1002774   6.2184203   9.4800067  24.5974469
   6.0228342  10.1712394  25.2300406   6.7916304   8.8771605  25.0709867
  78.7884080  39.8958063  11.5962613  78.0161839  40.4575634  11.5304482
  79.4131559  40.4067945  12.1108592  62.4778318  24.3140030  22.2013831
  63.2819080  23.8561106  21.9563842  62.7772188  25.0710130  22.7049065
   5.8309686   8.3011878   4.1881445   5.1697320   7.7220321   4.5670587
   6.3842273   7.7222782   3.6637396  28.1442952  60.7766485   7.3936284
  28.5408950  61.5862656   7.0719767  28.7324500  60.4815292   8.0887622
  19.2711556  37.5774980  40.8405209  19.3457425  38.4022188  40.3604126
  20.0191426  37.0591307  40.5437994  38.9738846  34.7687554  30.5370784
  39.7994590  34.3443608  30.7706285  38.3016849  34.2332673  30.9585452
  59.8809901  49.6356394  55.2454744  60.1464787  50.5524232  55.1729880
  60.5841198  49.1480269  54.8164366  35.9441209  53.3558846  21.7251182
  35.2154851  52.7430201  21.6265225  35.5409193  54.2209911  21.6526604
  13.0750525  17.5175726  21.4783335  12.8750420  18.4220874  21.2373304
  14.0153050  17.5197983  21.6576409  55.7642984  52.7632904  15.0582707
  54.9877501  53.1666040  14.6702731  56.3628960  52.6388693  14.3217707
  37.6558539  74.2356160  70.5666389  37.9518094  73.7163546  69.8189697
  36.9208583  74.7465064  70.2275162  78.2308703  47.7765751   0.2777679
  78.2238209  47.5089645  -0.6412355  77.9587411  46.9940567   0.7571879
  40.9432888  21.4192104  18.1180203  41.8199635  21.0775185  17.9421747
  40.6214380  20.8891463  18.8471794  13.6162400  51.7099905   7.4832606
  14.2828524  51.0686731   7.7293748  13.2902884  52.0486593   8.3170998
   4.1536787  47.6674223  35.9427834   3.6995220  47.7556849  36.7807484
   4.6251243  46.8372631  36.0121441  67.0821549  16.4602066  60.9067462
  67.1139939  15.5734326  60.5477820  66.8274499  17.0096566  60.1654898
  16.4929032  32.4638629  10.1365745  16.5896428  31.8162727  10.8347869
  16.1889029  33.2540131  10.5832028  39.8333740  33.4502649  34.8545957
  40.5550623  33.2811022  35.4602218  40.2353716  33.9316320  34.1314650
  47.9613924  19.6264505  47.6598930  47.6229334  19.3308640  48.5050631
  48.2927752  18.8310051  47.2431421  69.9332666   8.8903826   9.4586748
  69.9407816   9.7259557   9.9255711  69.0227938   8.5985428   9.5045882
  14.9978924  51.5831470  10.3477573  15.6231725  52.0820332   9.8220491
  14.2017221  52.1144629  10.3410995  33.8352776  62.5547981  31.7265725
  34.4576621  61.9117641  31.3869095  33.1675935  62.6254559  31.0443425
   8.8633716  61.5505981  14.1190326   8.8608253  60.5936623  14.1414309
   9.7540557  61.7816305  13.8553369  80.4877722  21.0704732  25.6609416
  79.5429348  21.0255766  25.5143166  80.8362203  21.4611030  24.8595524
  11.8833625  42.3887062  20.9424996  12.7764392  42.7299881  20.9891343
  11.4496148  42.7461100  21.7173266  41.5563917  56.2275982  15.2181780
  41.2981367  56.2406731  14.2965686  40.7306433  56.2829447  15.6991208
  17.3848784   4.6080425  33.7890577  17.4259186   3.9364457  34.4698715
  17.8987455   4.2480135  33.0661798  17.2368181  28.3113384  33.7562299
  17.3707747  27.8067017  34.5584941  16.8006182  27.7024102  33.1602716
  50.0907183  39.2882586  11.7833638  50.0330544  40.2109003  12.0316374
  50.0916433  39.2973948  10.8262086  30.0499082  64.1885233  20.7374668
  29.4707346  64.9502230  20.7621145  29.4905281  63.4540272  20.9901357
  17.8532751  34.0852429  42.4402486  17.1355827  34.7181345  42.4157725
  18.6098345  34.5923163  42.7347480   4.2327526  22.6715326  13.7038648
   4.1202703  21.9809508  13.0506587   3.3721480  22.7553415  14.1144347
  35.3229260  47.7196980  35.4952097  34.6517134  47.3129892  36.0431981
  35.4620481  48.5818386  35.8871222  57.2887278  60.1590633  14.8728693
  57.8168917  59.4052982  15.1357603  57.3117256  60.1456213  13.9160407
  86.7590959  44.1422821  64.8585491  86.7575319  44.0537239  63.9054559
  85.8883173  44.4793393  65.0692026  25.1053047  67.3183632  12.9661238
  24.9903607  68.2654381  12.8882539  24.2937994  67.0110178  13.3701420
  61.8559074  29.6181178  31.8577743  61.8625879  28.6611342  31.8385935
  61.3159227  29.8387027  32.6167130  58.7544679  66.5734053  24.3578911
  58.2539653  66.5689611  25.1738024  59.0383982  65.6661415  24.2461324
  74.7530174  71.5298843   8.8109100  74.7054148  70.5745888   8.7738335
  74.0197802  71.8273163   8.2722741  20.0124002  36.5864658  19.2165232
  19.1066992  36.3522363  19.0138543  20.4499340  35.7476211  19.3619108
  15.6300020  28.2729268  49.9086571  15.2368605  27.5492358  49.4208574
  14.9066472  28.8816237  50.0585794  21.5826368  62.6713037  23.6444807
  21.3324499  63.1792212  22.8726935  21.1803317  63.1363821  24.3780208
  27.5422311  74.5128345  24.4949317  27.5996542  75.4652548  24.5713234
  26.9529819  74.3670082  23.7548280  38.7881231  57.5936460   6.2770349
  38.6967993  56.8408489   5.6929189  38.8683939  57.2106361   7.1505874
  29.2919350  67.9485178  26.0170746  29.2171526  67.2222996  25.3980064
  29.7833753  67.5854874  26.7539096  17.3983300  28.6315703   1.4481159
  18.3148170  28.9035869   1.4959709  16.9798648  29.2951417   0.8996710
  32.4292779  34.3335986  27.5759792  32.4226046  33.5514402  27.0242405
  33.3556581  34.5592618  27.6603913  10.3666218  16.1149479  53.6969362
  10.6818421  17.0153071  53.6180411  10.3743346  15.7790734  52.8006326
   1.6365679   1.7936684  59.2400657   1.3414963   2.0619370  58.3698963
   2.0340331   2.5812317  59.6115528  25.6358004  52.1207952  31.4673018
  25.9887505  51.6313267  32.2103214  25.6797934  51.5074062  30.7337809
  54.8681895   6.3629865  27.0538449  55.4977266   6.9484948  26.6330218
  54.8224799   5.6033086  26.4732933  77.3789692  16.0146940  32.7472329
  77.0002890  15.5618775  33.5007524  78.3122063  16.0784483  32.9502869
  64.8426963  29.6192051  64.1107415  65.5809600  29.0224625  63.9878927
  65.0033994  30.3299738  63.4900854  39.6584558  53.0799103  18.8679481
  39.4421721  52.7830648  19.7518802  39.3959665  54.0003014  18.8534462
  28.9131331  52.8246880  35.0429034  28.6364794  52.3169231  35.8057046
  28.3029604  53.5615301  35.0115395  32.5062037  60.7499647   5.9019727
  31.7562628  60.3945732   5.4249859  32.4454713  61.6964722   5.7728791
  75.7324159  21.5231419  17.3411906  76.0106897  20.6228352  17.1731317
  74.8702931  21.5880036  16.9303739  31.3105202  47.6251698  25.2958512
  31.6852880  48.1836653  24.6147776  30.4529691  48.0102205  25.4763389
  25.9003949  49.8264885  13.5843849  25.5842352  48.9456272  13.3835018
  25.8530974  50.2939224  12.7504170  13.5119343  52.4122572  34.4358373
  12.7831781  52.3867083  35.0559115  13.1862092  51.9488907  33.6641979
  83.4000259  75.1841879  10.5733669  83.8001489  75.4424667   9.7430491
  82.4658387  75.1131487  10.3772044  22.2664261  38.5464382  46.1400747
  21.8339372  39.3891072  46.2782478  22.5014138  38.5471249  45.2121687
  83.9302904  14.3421818  55.3377162  83.7815006  14.2163922  54.4005547
  84.8608191  14.1539551  55.4598747  19.3783867  26.6289163  22.7574849
  20.3329802  26.6529155  22.6911116  19.1155791  25.9167862  22.1743608
  45.1002910  74.3313315  44.4282804  45.9113529  73.9612820  44.0797506
  45.3893295  75.0127795  45.0351725  34.7717908  67.7441885  65.7401089
  34.8095074  67.1453383  64.9943291  35.6100181  67.6240327  66.1863930
  51.3864756  34.4612885  21.5841174  51.2954903  34.0399814  20.7294512
  51.4651346  33.7346339  22.2021937  37.4615169   9.5960087  17.7363753
  37.2798514   9.9352032  16.8599176  37.0311284   8.7412578  17.7563643
  45.5883837  78.2054281  24.0801668  45.9349060  77.3273611  23.9215755
  45.1424503  78.4376574  23.2656431  81.2011869  13.2800032  70.9451924
  81.1773760  12.8823496  70.0748265  80.2822072  13.4374262  71.1618189
  25.3998068  75.8395603  41.7533146  26.1603006  75.6191137  41.2154637
  24.6472409  75.5792334  41.2221776  26.9006109  48.1942606  36.5371490
  27.2012043  48.8216496  37.1946144  26.2242699  47.6849461  36.9836807
  31.9356823   6.5067196   9.8121816  32.0298219   5.6705785  10.2685118
  32.8248692   6.8587297   9.7713363   9.1640890  20.2286482  22.4743986
   8.6794555  21.0534930  22.5058985  10.0798547  20.4845524  22.5844741
   9.8129280   1.9447781  63.3195840   9.1591986   1.2803341  63.5372655
  10.5413921   1.7681290  63.9148687  35.9676886  36.3787985   4.0983558
  36.0114598  37.1585822   3.5449547  36.0527110  36.7135644   4.9910676
  75.1501365  11.7084433  43.0987655  75.3544159  11.2986685  42.2581778
  74.2964775  11.3485218  43.3395038  35.5499151  75.7848265  69.7243234
  34.9112406  75.4921892  70.3744694  35.1649555  76.5773609  69.3502559
  25.6848168  32.2523856  10.7832670  26.0018039  33.1054020  11.0801029
  25.7994986  32.2716260   9.8331565  30.0970674  60.4382563   9.0503877
  30.7888460  60.9235191   9.5000499  30.4006815  59.5304918   9.0530783
  30.9592128  27.7796793  23.1154537  30.1645088  27.2525787  23.1981754
  31.5735412  27.3855996  23.7347555  83.6236412  35.4431607  59.0545247
  82.6789291  35.4058052  59.2040394  84.0022786  34.9697567  59.7953032
  51.5067257   9.5130183  59.1519616  51.1381967   9.0233351  58.4166883
  52.2938682   9.9245287  58.7951766  30.1957846  57.9090309   9.8203427
  30.6628060  57.8091955  10.6498945  29.3729949  57.4375200   9.9504441
  81.8906982  19.6615817  44.1342078  81.3249500  20.3523613  43.7892614
  82.5980623  19.5890452  43.4934197   7.0204845  77.1177962  66.4211376
   6.3096777  76.6013887  66.8010197   6.6573206  77.9993799  66.3365273
  20.5924726  53.2081795  20.3932166  21.4594436  53.2953882  20.7894301
  20.4239559  54.0623045  19.9953341  59.4964075  67.5483322  31.9621420
  60.3061438  67.7625990  32.4254394  58.9143181  67.2085428  32.6418066
  74.4066977  48.4720945  39.9643087  75.2089881  48.6788893  40.4436779
  73.7435436  48.3581305  40.6450939  41.6850328  54.9042225   9.3626565
  41.7976379  55.4395008   8.5771424  41.3941813  54.0538263   9.0333307
  64.5501233   4.1963459  45.6129394  64.9069471   3.5715319  46.2442194
  65.2285935   4.8663737  45.5294429  19.1451776  32.6426029  32.4421048
  18.8105822  31.7460132  32.4219894  20.0936389  32.5462794  32.3562217
  22.1847358  70.1639297  53.7902306  22.4807241  69.3177965  53.4545480
  22.5244435  70.8024576  53.1632446  22.5585794  43.6452961  21.0426116
  21.8270445  43.4472895  20.4579067  22.1861815  43.5818386  21.9221139
  17.2256708  65.1340532  26.1400795  17.4526536  64.4394064  26.7582846
  17.2996485  65.9412909  26.6491199  44.2035532  19.1183913  12.7768362
  44.1208553  19.5950925  13.6027586  44.1229105  19.7925186  12.1020913
  28.0684114  61.9160032  20.9758735  27.9333377  61.2704706  20.2821350
  27.2379827  62.3892164  21.0277009  74.3300688  45.1078463  41.2543106
  74.5656001  44.3729162  41.8205547  75.0169181  45.7569885  41.4062548
  26.8003297  51.7350054  37.0022798  26.8021202  51.0739803  37.6945758
  26.7909598  52.5706434  37.4690294  18.0965579  44.6205378  32.2219515
  18.2568634  44.7026205  33.1620550  17.6231754  45.4192257  31.9890714
  40.7624531  77.0716715   7.8369254  40.6904125  77.9649258   8.1732965
  41.6697502  76.9998217   7.5404757  41.3213015  49.3147182  28.3980155
  41.1914396  49.8714447  27.6302743  40.4561806  49.2611742  28.8041329
  15.6215358  44.5327568   2.8127068  14.9302185  44.5481348   3.4745803
  15.7977891  43.6024952   2.6720372  26.0420680  37.9971433  39.0769148
  26.9046378  37.8112674  38.7058949  25.7540154  37.1613288  39.4438887
  71.0773725  12.6913668  67.3615570  71.0996861  13.6482026  67.3475550
  71.5064831  12.4298312  66.5468807  14.2428005  25.9913826  35.0259542
  13.6512983  25.4046440  35.4972243  15.1053202  25.8140230  35.4012346
  59.1782030  28.6596991  67.9055528  59.4278682  28.2143713  68.7152342
  58.3943088  29.1574551  68.1378849  26.0545301  21.9422007   7.5267881
  25.7914639  21.0686326   7.2371233  25.3289008  22.2415090   8.0746084
   7.0613033  44.7560072  46.7427492   7.2529465  44.6125984  45.8159637
   7.5291777  44.0543032  47.1954536  84.1508825  23.3331467  63.3614622
  83.7040932  22.5486971  63.6796592  84.7692520  23.0078293  62.7072309
  19.0463169   1.9522501  66.8899234  19.0927895   1.9116904  67.8451340
  18.4152277   2.6491381  66.7102052  35.2654719  39.1033721   5.1023632
  34.4896793  39.5929909   5.3755867  35.6671023  39.6488857   4.4260949
  26.4346367  46.5462919  60.5120192  25.7497093  47.2102048  60.5915557
  25.9942293  45.7218909  60.7185040  54.0914392  63.4360790  28.9851379
  53.5771179  62.6831961  28.6938095  53.5255814  64.1905355  28.8213253
  52.6033306  32.7441168  10.9696090  51.7078590  32.9456115  10.6980181
  52.5868225  31.8092752  11.1746192  68.4176154  16.9048048  65.0970606
  67.5191189  16.8576790  64.7703873  68.7831075  16.0383202  64.9185984
  40.6882048  42.8886795  36.4914393  40.8852100  42.5419664  37.3616171
  40.1631451  42.2054482  36.0746217   0.5829036  20.6862044  34.7533774
   1.3815027  20.2196717  34.9999928  -0.0440495  20.4691362  35.4433346
  41.5043545  31.8546033  15.5836225  42.1954918  31.8308830  14.9218059
  41.7181253  32.6137400  16.1260664  52.1699714  35.3170061  18.2942522
  51.8576860  35.6922197  17.4708903  52.3820209  36.0756874  18.8380075
  58.7013602  13.4864521   9.0682530  57.8810977  13.7131083   9.5064640
  59.3750357  13.9486170   9.5670485   1.6460498  11.1755730  66.8769823
   0.6981428  11.2587048  66.7730720   1.9277413  12.0319344  67.1987335
   2.2017797  26.3732268  68.7336780   2.3259910  27.3117377  68.5922401
   2.7422698  25.9562851  68.0626599  37.2645354  32.9279947  32.1742225
  37.5922942  32.5089860  32.9699874  36.6762567  32.2797108  31.7870688
  11.4574623  59.9460459   8.5444617  11.4583051  59.5011139   7.6969540
  11.1362505  60.8269978   8.3521664  53.2080841  28.6030197  18.3869624
  54.0414858  28.8381624  18.7948549  52.7968788  29.4425249  18.1811082
  50.2289238  72.3005941  67.4230088  51.1437550  72.5244691  67.5938745
  49.7865000  72.4462082  68.2592441   7.6443535  32.0825005  13.0509114
   8.4548074  32.2487974  12.5695157   7.8564870  31.3519979  13.6319423
  16.4262009  20.0323129  30.1236987  17.3422539  20.2585530  30.2846217
  16.2794769  19.2426658  30.6444311  25.3127718  40.9550714   4.1608340
  25.7737660  41.7507982   3.8952526  25.8284426  40.6117439   4.8905203
  64.7392559  56.3294268  32.1940255  64.2492723  57.1367645  32.3500800
  64.4372416  56.0277653  31.3372755  13.4738398  36.9627452  49.2486763
  14.1691983  36.4344025  48.8568068  12.6629686  36.5557241  48.9436293
  40.6300020  61.6663504  33.9555836  39.6861887  61.6524267  33.7966824
  40.7547760  61.0879230  34.7079682  66.8564219  22.6898934  65.8062588
  66.9125141  23.5631205  66.1942755  66.3923867  22.8243376  64.9799244
  58.2464027  62.5770664  45.8065557  58.7434578  63.3891249  45.7079411
  58.5293341  62.0323658  45.0720596  59.2669058  80.3958416  27.9435277
  59.5052004  81.3165283  27.8349376  59.1913795  80.0609875  27.0499945
  26.7394996  52.9643726  20.4548931  26.6461301  52.0911884  20.0740218
  26.1128378  52.9783916  21.1783099  19.1606081  30.7508421  11.1716688
  20.0808954  30.5003905  11.2527442  19.1552162  31.4271498  10.4943132
  82.5179925  58.9477279  70.0249771  82.8177896  59.1463842  70.9120455
  81.7552343  58.3832683  70.1507227  53.3205223  27.1026492   8.2751817
  52.6369429  27.6485276   8.6637259  53.4642601  27.4802923   7.4074519
  21.1151814  55.8816814  24.7868681  20.9950900  55.7879925  23.8418651
  20.2607155  56.1678791  25.1096845  63.9784379  23.0928828  46.4905129
  63.9393223  22.9052760  47.4283324  64.9103094  23.2156588  46.3094793
  59.5220184  47.8978634  17.9227388  60.2812672  48.3630323  18.2740104
  59.5990467  47.0118999  18.2768106  15.2071476  43.4136248  40.2786779
  14.5215034  43.7355232  39.6934390  14.8032010  43.4186983  41.1464548
  47.6120996  30.5381846  53.9128494  46.9036913  31.0942912  54.2370987
  47.4836731  30.5152297  52.9645824  26.8089334  48.3013871  66.3105343
  26.4703667  49.0892734  65.8852814  27.4274219  48.6286964  66.9636594
  13.3331227  38.3091283  13.5328150  13.1833947  37.3657441  13.4708524
  12.7726853  38.5936785  14.2547369  37.0975327  20.6428933  12.4153304
  37.6251984  21.3873196  12.1261394  36.8352866  20.8676124  13.3080566
  22.5259972  46.9561481  15.2384067  22.5496721  47.8975916  15.0670576
  22.2224379  46.8849754  16.1434031  77.3824986   1.2660096   3.3215107
  77.7469572   2.0474122   3.7372126  77.2696849   1.5134690   2.4037613
  61.8858290  65.3617001  57.8290510  61.5433502  65.0922775  58.6813116
  61.8642807  66.3183403  57.8538084   0.4513776  47.9563761   1.1581453
   1.0298910  48.0490732   0.4012035   0.4962952  48.8046980   1.5992422
  34.6282554  68.6628675  30.8194351  35.2019048  68.1177044  30.2809596
  35.1642108  69.4226074  31.0469770  57.2423792  75.9084511  40.8026600
  56.3086176  75.7739210  40.6407166  57.2775793  76.3417053  41.6554689
  21.9056273  66.8932056   1.5450786  21.5689015  67.3127747   2.3367915
  21.1264038  66.7151737   1.0184398  26.6806769  74.8396301  17.8286088
  25.9128690  75.3373337  18.1096697  27.1901774  74.7130108  18.6289883
  52.0409870  71.5821838  53.9976215  51.8163872  70.6577873  53.8914680
  52.4251699  71.6363621  54.8726654  51.1811161  63.4194469  44.9574995
  51.5404654  63.7551403  44.1362762  51.5025377  62.5193167  45.0093699
  58.8993025   4.6898517   0.8991040  58.1597233   4.3456042   0.3983583
  59.6543312   4.1936958   0.5828884  27.2668798   7.5098921  65.9288750
  26.4332588   7.0834280  66.1274721  27.5085981   7.9535796  66.7418598
  31.2032437  19.2675221   6.8300134  30.4555297  19.8623157   6.8881118
  31.7592406  19.5086467   7.5709301  27.6476407  54.6145010  18.2080972
  27.5431871  54.0880537  19.0006721  28.1905627  54.0757799  17.6325572
  40.3474712  50.8001518   9.0855575  39.6622133  51.3115025   8.6552453
  41.1503601  51.2979603   8.9313227  15.9680450  67.5148344  17.7206087
  15.8814847  67.4239540  16.7716718  15.1641250  67.9571581  17.9931772
  36.9059920  68.7443638  19.3439949  36.3444448  69.4266367  19.7119677
  37.0953441  69.0437794  18.4547663  16.1338718  38.6040617  61.7503677
  15.5265530  38.4344984  61.0301970  16.9260605  38.1214262  61.5142976
   1.8960197   8.5528065  66.9447644   2.1365555   9.4791771  66.9593529
   1.2731607   8.4784390  66.2217508  10.3285401   8.6539029   8.4368557
  11.0123627   9.2746018   8.6885530  10.0936215   8.2123899   9.2530155
  27.6782043   2.7769591  65.8699877  27.9531153   3.5395552  66.3790078
  27.1977861   3.1446387  65.1282047  47.9878832  44.4998337  60.1783942
  48.8572456  44.1093899  60.0889610  47.9619713  44.8230339  61.0790048
  62.2543661   2.7313851  20.9287238  61.8539278   2.0400285  21.4558935
  61.8432419   2.6452684  20.0686121  57.0222227  10.4652070  54.9719524
  56.7633407  11.3353490  55.2753639  57.7348940  10.2095555  55.5575943
  38.9635658  29.8731184  14.9508166  39.1587543  30.7891393  14.7532213
  39.1685820  29.7798347  15.8811378  18.6361599  30.3329372  23.7008429
  18.7474883  29.5825577  24.2845941  19.2053556  31.0089755  24.0685630
  66.8527381   3.9989041   7.2446054  67.4915807   3.6356687   7.8579313
  66.2260143   3.2893323   7.1033621  52.2494459  49.9494362  16.1787665
  51.9490051  50.6571817  15.6086230  52.3697710  50.3645849  17.0328176
  55.0152342   4.1198777  45.2618933  54.9483530   4.5296239  46.1243725
  55.5351011   3.3302068  45.4115486  80.2678068  16.1301924  69.8734500
  81.0479314  15.5984284  69.7157501  80.5105479  17.0062901  69.5738510
  65.1694386  15.0171327  36.5799642  65.2519052  14.1218900  36.9085455
  64.7180240  14.9237393  35.7410741  45.3639488   4.1054391  30.3454304
  45.9934859   4.8241757  30.2877474  45.3223841   3.7515687  29.4570136
  25.0124168  67.7528095  17.8995359  25.2008939  66.8613863  17.6061511
  24.2542934  68.0206394  17.3801637  30.3266676  19.9935318  69.5648287
  29.6828993  20.6867625  69.4191262  30.6674011  19.7958828  68.6924378
  15.7903218  67.4666834  34.6346998  15.9283209  66.7273903  35.2268410
  16.3655925  68.1537294  34.9712467  41.9846971  35.5095316  56.9711088
  41.3319225  35.5550553  57.6697098  42.8233499  35.6184174  57.4194811
  52.9245901  64.0921450  22.3304677  52.2076702  63.7463236  22.8621340
  53.6251688  64.2682457  22.9584885  53.1659381   4.9333619  17.8187406
  52.9023520   5.1216840  18.7194562  54.0870563   5.1907872  17.7799416
  37.5034960   5.2927662  69.0366444  38.0766733   5.7204129  68.4003936
  36.7353113   5.8615948  69.0872741  49.9725120   8.6223649  16.0495627
  50.6416146   7.9692124  16.2543046  49.1594283   8.1210660  15.9877563
  42.8126764  45.1588821  13.1662118  42.9548454  46.1045790  13.2071853
  42.9030085  44.9430943  12.2380388  31.9855971  10.2561902  48.2851124
  32.4025915  11.1177110  48.2738495  32.5990362   9.6994256  48.7646341
  83.7670326  44.3137360  11.9853437  83.2377529  44.7287607  11.3042736
  83.2110310  44.3306065  12.7643239  23.3752251  81.0125256  20.4566956
  22.7995348  81.6548443  20.0416708  22.8419924  80.6267643  21.1517406
  18.4620380  47.7235699  27.6505923  17.7722454  47.1272898  27.9419136
  18.9280713  47.9606533  28.4523654   5.3960258  79.9793959   0.1170951
   4.8760265  80.3355980   0.8374766   6.3021886  80.0529575   0.4165769
  52.0261049  67.0032644   5.3578132  51.4212894  66.3001299   5.5945313
  52.7586079  66.5564156   4.9335587  46.5347767  60.8246517  30.6118774
  47.0123959  60.6846571  31.4295053  46.9008732  61.6344357  30.2562785
  44.3274879  51.4077616  17.9962170  44.3373251  51.0299444  17.1167934
  43.4051895  51.6020441  18.1631267  62.9616213  71.6636562  44.2783976
  63.2572985  70.7557058  44.3449831  63.4551668  72.1265364  44.9554443
  33.9204955  46.4388752  37.2643661  33.6049080  45.5356789  37.2939968
  34.4131088  46.5472698  38.0778861  26.6225188   1.5124177  50.3805637
  27.0712607   1.3391828  49.5530033  26.9042437   0.8035039  50.9587526
  27.5474286   6.6042137  33.2102299  27.2550797   5.7364202  33.4889746
  28.3730340   6.4434981  32.7533078  73.5940790  66.6377544  28.1910372
  73.0337238  65.9473085  28.5453200  73.3495760  67.4210930  28.6838126
  84.8402221   1.0590865  68.6188459  84.6474583   0.8249499  67.7109621
  84.2294152   0.5343844  69.1363735  78.1079190  66.9394779  15.4255164
  77.4234449  67.5634623  15.1839077  77.6555657  66.2790871  15.9503877
  59.8036957  62.7428436  35.2332926  59.1615391  63.3831549  35.5396652
  59.3401146  62.2404718  34.5632601  71.4163589  52.4494123   3.2204226
  70.8830929  51.8370104   3.7271962  71.9719934  52.8784323   3.8711515
  29.1935224  80.4535367  59.9580978  29.7414501  80.7184508  60.6968985
  29.7650243  80.5353358  59.1946016  45.6661749  73.5578299  32.1204185
  45.4393244  72.7820969  31.6075754  46.6065359  73.4740114  32.2782898
  36.1375022  59.7051573  27.9018807  36.1147332  59.6918058  26.9450450
  36.4178610  58.8234043  28.1471181  27.6265607   3.0002377  10.0647129
  26.9413027   3.1550715   9.4145741  27.1888337   2.5128815  10.7626499
   3.6072636  44.4242573  20.1793623   3.1673432  43.9079857  19.5039630
   2.9717923  44.4758034  20.8933234  12.6618052  74.3058252  15.4216814
  11.7810619  74.5546722  15.1413262  13.2370651  74.9423122  14.9971914
  22.1638672   1.4636087  18.8941264  22.5102370   2.0796823  19.5396674
  22.1845668   1.9459294  18.0675817  32.4508309  40.6036329   4.7071114
  32.6990652  41.3792419   5.2101427  32.8141141  40.7574081   3.8349816
  34.2485833  53.0368280  26.8994427  33.5741973  52.4502516  26.5568590
  35.0267720  52.4854422  26.9808602  59.5925347  12.7205133  16.3237381
  59.3008201  12.9255628  15.4354310  58.7976257  12.4422883  16.7786467
  57.5650358  47.4323416  12.9634416  56.7123461  47.1771193  13.3155930
  58.1075239  47.5855875  13.7370420  42.8121233  28.1813979  18.7435269
  43.6729288  27.8923321  19.0463245  42.1935606  27.6125717  19.2018354
  33.8266993  57.2700834  26.6511750  33.9849854  56.7631960  27.4475718
  34.5267987  57.0042849  26.0549831  55.2655697  64.8228788  23.4622121
  55.8285189  64.1432333  23.8328886  55.7541990  65.6356812  23.5919237
  72.7803183  61.8905497  15.5901885  72.1711922  61.2550592  15.2142143
  72.4616146  62.0291233  16.4820719  17.5529742  44.6458483  35.3010011
  16.6627908  44.3044233  35.2159286  17.4356222  45.5791569  35.4781747
  25.3316045  78.4203768  36.4649796  25.6844068  78.0146551  35.6730509
  25.2796149  79.3525314  36.2537479   1.1272336  37.3661876  14.5586002
   1.1149407  36.5935183  15.1234567   0.5903531  37.1206284  13.8051474
  70.2298100  39.8596455  60.6853638  70.9393210  40.2840401  61.1677734
  69.6778495  40.5822159  60.3862594   2.0574413  52.6276112   3.1292322
   2.9048365  52.6919842   3.5696974   1.5241936  53.3113241   3.5347140
  39.1047812  55.3863049  16.4914417  38.3939099  55.5489540  15.8714104
  39.3770361  54.4861698  16.3129246  75.0259080  73.2582953  69.3227701
  75.8994499  73.6454823  69.3797244  75.1368871  72.5001957  68.7490088
   6.0184017  63.7756111  41.0879646   6.8432442  63.7011840  40.6080376
   5.9952990  62.9985812  41.6464649  58.7781334  71.1543608  42.6593304
  58.4975863  71.9050741  42.1359253  59.7115707  71.0640955  42.4675560
  33.7386950  33.6707570  54.9003778  33.2728918  34.5066668  54.8777006
  33.9012011  33.4620882  53.9804421  82.7910805  64.0214300  33.2781410
  83.2698822  64.0733910  34.1053557  82.8790283  64.8942995  32.8952622
  52.4961662  31.2943149  18.4539866  52.1995735  32.0130372  17.8956831
  53.2096100  31.6702867  18.9696193  12.0576656  48.2632446  29.1704845
  11.7594695  49.1232204  29.4667125  11.9932187  47.7069187  29.9467444
   9.5142919  70.4313755  40.3172016   9.6744722  69.4953728  40.4375219
   8.9473319  70.6734133  41.0494661  30.0884080  76.1546135  35.3555751
  30.7684898  76.3370466  34.7071648  29.8412085  75.2441597  35.1937127
  48.8851643   6.2813783  27.6010680  49.1747093   7.1812159  27.7516961
  49.6724415   5.8222598  27.3084283   9.4601047  54.6177435  47.3395824
   8.5896093  54.9124718  47.6071787   9.8510748  54.2677689  48.1401396
  67.6507585   7.8773927  60.8792114  67.2047321   7.1396874  61.2952423
  66.9570963   8.3454942  60.4145145  34.3378425  80.7975101  12.1751082
  34.8043561  80.4456806  11.4169466  35.0080776  80.8746243  12.8541291
   0.6883233   9.2762994  35.4909325   1.0814326   9.5206403  36.3287830
   0.1599877  10.0352716  35.2438498  83.6020470  61.1675501  35.4571986
  83.7649727  60.9060764  36.3634658  83.1595230  62.0133686  35.5278158
  57.3425674  32.2986627  10.8326721  56.6016769  32.3632741  10.2300668
  57.1499205  31.5284753  11.3673973  63.2568121  69.3665791  37.0993996
  62.3150015  69.5111895  37.1905661  63.5992908  70.2057457  36.7915940
  10.6218250  40.8501316  67.6187758   9.7328170  40.5008294  67.6810883
  10.5018647  41.7689396  67.3786805  33.8578892  24.9736333   9.3519843
  34.4412827  25.4407430   9.9500591  34.3827343  24.8372602   8.5632050
  45.0846624  41.0606432  32.3190069  44.6436739  40.4631853  31.7150187
  45.7424974  40.5185795  32.7544904  43.0893230  53.2918692   5.3503340
  43.2239628  54.2167330   5.1436168  43.5818720  52.8218889   4.6774733
  23.2417035  20.7790112  29.9857378  22.5965691  20.0792122  30.0872946
  23.5901380  20.6572366  29.1025639  31.0280967  75.2706528  22.9862380
  31.4341140  75.5136776  22.1541810  30.0872636  75.3159714  22.8159142
  40.2291727  50.7269382  16.9947398  40.8441114  50.2286291  17.5330424
  39.7252226  51.2439871  17.6231742  29.0114498   7.4823898  10.0125873
  28.5474110   7.0534420  10.7315481  29.7614980   6.9137371   9.8385429
  75.4050357  19.5401884  67.3318435  74.9753697  20.3911044  67.2449003
  74.6916051  18.9046313  67.2742538  31.7407370  62.3930836   1.9918126
  32.0756364  61.7524529   1.3643846  32.3375964  62.3324776   2.7376786
  54.7651052  29.9551868   9.9916732  54.5021009  30.5981994   9.3331945
  54.3131351  30.2305436  10.7892525  17.1159816  71.0312510  17.0512962
  16.3949966  70.8728313  17.6606524  16.8323517  71.7862320  16.5357518
  29.3049979  66.2970448  24.0139484  29.2342710  65.4981518  23.4914517
  29.3510461  67.0022106  23.3683038   2.2077759   7.3399807  56.5279208
   1.2937816   7.1711279  56.7566846   2.5139864   7.9497410  57.1992348
  48.1656313  69.8031569  59.9677134  47.4245071  70.4072428  60.0128698
  48.2658148  69.4796228  60.8629894  13.3203786   2.5227117  27.1282315
  13.4796803   3.2384061  26.5128994  12.4245541   2.6647424  27.4340963
   4.8683071  59.5463419   2.5476712   3.9332250  59.7352791   2.6261240
   4.9051708  58.7019110   2.0984340  28.4290171  70.2952576  14.3984795
  29.1582322  70.3775501  13.7839019  28.0213046  69.4583750  14.1757011
  14.8595631  55.3454113   4.7948253  15.3666949  54.8842812   4.1266876
  13.9587593  55.0529528   4.6560752  70.9703603  69.6048047  61.1364369
  70.7019296  70.4297616  60.7319365  70.1500669  69.1936161  61.4089702
  76.2429340  30.6744553  54.3243275  76.0058052  30.6265809  53.3982013
  76.7305775  29.8673560  54.4887386  25.8553243  74.4834137   7.9410177
  25.5909300  74.3271971   7.0344168  25.3614092  75.2599764   8.2041293
  24.0283513  48.1139660  23.1367636  23.7506866  48.9677429  23.4687376
  23.5764718  48.0247450  22.2976708  66.9365828  15.4173516  40.4071856
  67.2375910  14.9459218  39.6304083  67.7088205  15.8933019  40.7127237
  12.3283482  63.3988619  33.6708546  12.6365256  63.5206556  34.5688653
  12.0161378  64.2638922  33.4053779  39.9598956  76.9143534  27.0790076
  39.8778677  75.9849548  27.2928309  40.8923149  77.0378590  26.9013262
  35.3794180   1.9629525  37.5263453  36.1694257   1.8936395  36.9903278
  34.9445228   1.1165952  37.4225307  22.2469187  37.1565819   9.1655099
  21.5228677  36.8708134   9.7225714  22.4558663  36.3897133   8.6321396
  35.9984684  43.0327892  33.3974838  35.7646680  43.8588953  32.9742622
  35.3180170  42.9009056  34.0576553   4.0687537  30.9836173   6.6586483
   4.4493121  31.4954329   7.3724085   4.7078162  30.2903080   6.4938647
  32.2658896  42.5508499  25.1160479  32.2508502  43.5055399  25.0483847
  33.1692338  42.3417854  25.3537250  23.9514025  10.6049515  68.5221046
  23.7099560   9.6989085  68.7145156  24.3216045  10.5720068  67.6400067
  53.9787626  58.7319994   4.1569552  54.2909527  59.1462326   4.9614304
  53.6775446  57.8668118   4.4343588  85.1046650   7.1611833  34.6038055
  85.6097548   7.0118474  35.4030681  85.7651226   7.2598313  33.9180255
   6.0107668  38.9216353  64.9432062   5.1946147  38.7695624  65.4196523
   5.9057625  38.4337260  64.1264127  31.6739702  53.3627748   9.6362793
  30.7195377  53.2905960   9.6271652  31.8521953  54.2286777   9.2692918
  51.5297222  55.8406687  37.2612405  51.9099665  55.2361393  37.8985739
  52.2704792  56.1169434  36.7216253  83.0246749  71.3017323  56.5069185
  82.6447931  72.1802976  56.5136610  82.2731223  70.7151630  56.5925966
  45.5106640  66.5782976  35.1153612  45.6850433  66.7741823  34.1947913
  46.2763929  66.0815859  35.4037595  21.9652510  43.0576897   3.9736888
  21.7972612  43.0995560   3.0322754  21.8900418  43.9644432   4.2709646
  63.1872702  52.4904680  24.4500852  63.5052633  52.6552391  23.5624099
  63.2350731  51.5395880  24.5489788  56.3229132  56.3162804  16.9458234
  56.6068220  55.5667305  17.4690807  55.6099749  55.9751415  16.4058447
  61.1587620  47.3675680  42.3670721  60.9043694  46.6414118  42.9364681
  61.6076803  47.9816341  42.9481316  19.7443557  46.6383696  34.5724392
  20.1702642  46.7400742  35.4236078  18.9407861  47.1535778  34.6436238
  71.1622667  15.3145564   6.2132365  71.1945534  15.8473003   5.4186457
  71.7901897  15.7288957   6.8050742  36.9315386  37.2278833  21.9171143
  36.0016775  37.0548463  21.7699885  37.2965646  37.3377681  21.0390973
  25.5568464   0.1838519  59.1114448  25.7830437   0.7542349  58.3767818
  24.6361502   0.3760315  59.2892419  41.2694502  69.5959711  12.2973144
  40.7157660  70.2470541  11.8663156  41.2000561  69.8019314  13.2295144
  34.0838861  56.4077377  34.2637110  34.4578600  55.5683947  34.5318007
  33.1534052  56.3340664  34.4758677  51.9325161  70.5763102  28.4715843
  52.4313974  70.2756882  29.2311764  52.5979376  70.8648539  27.8469324
  36.6580248  19.3729305   3.6203134  36.3688588  18.5544658   4.0237111
  36.6077185  19.2068553   2.6789740  12.4385464  66.8786907  23.6461997
  12.6202452  65.9461737  23.7629485  12.2521102  67.1987200  24.5288420
  34.9924374  60.7791567  24.4605541  35.6516981  60.0884390  24.5277166
  34.3129539  60.5231857  25.0842643  33.5477932  49.0994622  70.3712594
  33.8767202  49.3988968  69.5236896  33.4312637  49.9018551  70.8800059
  28.2070303  39.9186444  10.6825697  28.8653612  40.6126690  10.6484306
  28.2157445  39.6248555  11.5935266  83.9008562  11.5334462   1.2441896
  83.3594744  12.1691178   0.7761451  83.5336153  10.6828736   1.0036007
  78.1939507  50.4583120  29.0863085  77.8177071  50.0184631  28.3239412
  78.9924574  49.9661016  29.2769361  51.4970732  24.6408558  27.1316171
  50.5804443  24.8437405  26.9448924  51.8077755  24.1913080  26.3457417
  27.5462985  79.4108772  19.3793786  27.1851015  80.2227497  19.0235174
  28.3271003  79.2443943  18.8513041  18.1888807  68.1573915  19.1548789
  17.7573729  68.6674881  19.8403263  17.4781132  67.8892088  18.5725403
  43.5889196  78.6835623  41.8949652  43.2076788  79.3943739  42.4103594
  44.4074631  78.4739494  42.3447227  69.7310066  75.7031393   6.3300681
  69.0464401  75.6387329   5.6641448  70.1076460  76.5738964   6.2029397
  55.6593895  40.4036045   2.2488229  55.9209633  39.9871778   1.4276059
  55.1073217  41.1378384   1.9798298  46.0013914  74.5988274  26.5793180
  46.1397696  73.7773895  27.0508265  46.7223740  75.1615238  26.8617916
  18.5246921  80.9868717  17.7066576  17.8950930  81.4000702  18.2975078
  18.0534780  80.2389050  17.3395991  42.4164677  44.9051476   1.6072017
  43.3729362  44.8847532   1.6385596  42.2022057  44.6988535   0.6973854
  84.5128540   2.6897359   8.1987756  83.7406954   3.2232684   8.3867806
  85.2092593   3.0824384   8.7251174  73.3362961  53.1370449  20.8338904
  72.6943207  53.8000536  20.5798864  73.7659740  52.8932142  20.0140429
  60.6918335  67.7162600  19.3188477  60.6126165  67.8821659  18.3794701
  61.5707445  68.0221844  19.5428157  30.0637078  27.9520822  19.8958087
  30.3304195  27.2773957  19.2713940  30.6776452  27.8602576  20.6244230
  44.0117979  57.4296856  35.8548498  44.2249489  56.7332268  35.2337694
  43.8610935  56.9741392  36.6830993  27.8661108  70.5346823  19.5359528
  28.6437726  70.6491947  18.9897311  28.0165935  71.1053562  20.2895570
  39.0608978  48.7468052  14.7812510  39.3799472  49.1380024  13.9679837
  39.2952299  49.3800735  15.4596972  48.0113935  63.1018829  18.5274780
  47.5278759  63.1010008  19.3535757  47.3901939  63.4479856  17.8867316
  43.2843876  64.5986223  40.7048845  43.2289553  64.4435596  41.6478109
  44.0000534  64.0349197  40.4111242  72.5908987  10.9401177  43.7526321
  72.2873060  10.2975415  43.1114101  72.0499508  11.7132043  43.5915804
  52.4324131  42.5971508  14.3588340  52.2808552  42.2045565  15.2185619
  51.5613699  42.8530455  14.0554702  31.0075569  62.1804094  23.6055207
  31.6051292  61.7767668  24.2349768  30.5938745  62.8938007  24.0914989
  34.7637899  21.2758614  70.4552676  34.3183430  22.0021893  70.0190879
  34.3795021  21.2507845  71.3315812  54.5137978  62.7256918  17.1257961
  55.3575754  62.7740908  16.6764259  53.8673544  62.8945065  16.4403427
  10.5504044  33.9724852  63.6914091  10.6893666  34.3457438  62.8210066
  11.4188917  33.9734055  64.0938549  34.5594382  73.6611748  16.6656637
  34.9146175  74.4506788  17.0740271  34.4701743  73.8895321  15.7403982
  78.1531088   6.9713639  32.8197289  78.9567320   6.4699124  32.6820350
  77.7428047   6.5618562  33.5814261  64.9505640  27.5673367  54.3833016
  64.1872824  28.1047465  54.5950185  64.7459836  27.1866394  53.5292242
  14.7954106  70.7668066  59.5303488  15.2794504  70.0062037  59.8519373
  15.4186106  71.4907503  59.5916748  23.4521341  35.6547546  24.6638131
  24.2007232  36.1378670  25.0137377  23.7892604  34.7731519  24.5045900
  49.8053208  80.3522303  53.3043252  50.0316253  80.1440241  54.2107843
  50.5097547  80.9285476  53.0079149  71.0884373   1.2701844  14.9112678
  71.0226194   0.5215310  15.5040658  70.8965151   2.0292806  15.4618871
  17.9531057   2.8363921  63.9066093  18.3006056   2.7611615  63.0178945
  18.1654985   1.9988705  64.3185268  36.7957067  55.7320452  14.4025958
  36.6417193  54.8598623  14.0395343  35.9427142  56.0048103  14.7405827
  23.8804579  60.7528257   4.1619846  24.2522550  61.1609697   3.3800524
  23.3872557  61.4545345   4.5869425  47.3450184  49.8912525  17.5710595
  46.4928484  49.5899105  17.8860605  47.2797823  49.8397303  16.6174757
  38.3962989  62.7217770   3.9810854  38.6907411  61.9192314   4.4117251
  38.0585051  63.2654238   4.6928257  42.5108194  70.7111931   9.3712032
  41.6097164  70.4545164   9.1753483  42.4315929  71.3259506  10.1006079
  19.0713239  47.9817057  47.3175335  18.3548880  48.2237864  46.7307234
  19.8285472  48.4612560  46.9815683  13.5111129  57.0437384  14.3404830
  14.1765690  56.6578054  13.7708724  12.8472126  57.3808384  13.7389588
  49.0985918  62.4276209   5.1382309  48.3244848  62.3562098   5.6966984
  48.7720251  62.2618866   4.2538565   3.4817600  51.2884140  38.5761762
   3.4161299  51.3143444  39.5307732   2.6267833  50.9706688  38.2858610
  39.7534513  79.0903902  11.3637674  39.7715855  78.1370497  11.2798309
  40.2677107  79.2713833  12.1505404  23.9614590   0.7030322  67.5370319
  23.7872227   1.5868832  67.8605716  24.9162395   0.6446148  67.5022076
  48.9425230  63.5196257  14.9707234  49.5981359  63.0663061  15.5007219
  48.2135105  62.9021358  14.9117959   7.3985093   5.3970765   5.0673443
   7.7805083   6.1128472   5.5752665   7.1428960   4.7480535   5.7228285
  77.1074624  34.4282605  61.0824256  77.1634264  35.3188254  61.4288346
  76.3034136  34.0737273  61.4619563  46.9437627   8.9466046   5.9318453
  47.1978704   9.8044538   5.5916208  46.1674647   8.7083196   5.4250771
  45.1156378  58.6593628  40.0523901  45.6926775  59.2403078  39.5566463
  45.1904488  58.9625502  40.9572220  38.7438416  45.0327492  21.4768481
  39.1859341  45.8209562  21.1613870  38.1161594  44.8178053  20.7868862
  48.1714153  62.1665478  50.0025320  48.7015438  62.6320505  50.6494522
  47.3124552  62.5862741  50.0500154   2.0877764  41.4461231   0.9855706
   2.0490627  40.4907846   1.0310090   1.1719745  41.7240381   1.0029285
  29.3395660   2.2141885  27.6100683  28.4507829   2.3146199  27.2691727
  29.7364119   1.5461206  27.0511150  44.1353130  47.5497341   5.3027105
  43.8133764  48.1277370   5.9944487  43.5453510  47.7067900   4.5654798
  33.4745121  58.4890079  30.9473276  34.0040684  57.7189732  30.7403207
  34.1068697  59.2048883  31.0095239  50.1779882   1.2551545  23.1480742
  49.5199267   1.8101358  23.5666203  49.7714059   0.9795522  22.3265123
  75.8994810   7.8600453  13.8946974  75.4738419   8.4871530  14.4793344
  75.3307907   7.0903348  13.9141476  75.8104772   3.2215001  42.0626937
  76.7166216   3.2807805  41.7600070  75.4080493   2.5704504  41.4878712
  48.6749077  56.5733719  26.4986587  48.8408422  56.3081455  25.5940294
  49.5424700  56.6054773  26.9018126  55.7700825  79.8026085   3.3158460
  56.5550852  79.6696997   2.7844968  55.1171780  80.1346874   2.6996654
  61.1786556  74.5928764  41.8086052  60.8137941  74.3916750  42.6703644
  61.8020535  73.8860035  41.6414738  45.0146151  81.8208027  25.4069805
  45.2122402  81.2508106  26.1501408  45.8323574  81.8598747  24.9109960
  13.8066189  13.6997556  24.5155120  12.9007619  13.6345147  24.8178267
  13.7339013  13.9180707  23.5863805  37.1438932  60.9537983  43.2606268
  37.8680944  61.1321115  43.8606024  37.4722290  61.2220764  42.4024582
  46.4889765  28.7642503  22.0320535  46.6632795  29.3457532  22.7721238
  46.5783024  29.3244481  21.2610602  43.6356075  55.8703400  66.2369616
  44.0102299  56.3587738  66.9699885  44.3736704  55.7221676  65.6457381
  31.2404959  12.5119733  21.5262628  30.9028380  11.6948747  21.1594176
  31.8861811  12.2340535  22.1759343  41.0786676  50.7999802  26.3337159
  40.9558821  50.6735897  25.3928757  41.2050200  51.7434740  26.4341569
  70.4437065  42.1429062  32.8977323  71.2016106  42.0875978  32.3157072
  70.7697487  42.6004028  33.6727309  16.2661815  67.4155092  41.5070391
  16.4366567  66.5400028  41.1596727  16.1616683  67.9651642  40.7303858
  63.1832377   2.8383683  25.8094931  62.5041549   3.3059835  25.3232670
  62.7017729   2.2180127  26.3568330  21.7811990  69.8482084   7.5623620
  21.2495494  69.1258526   7.2280204  22.4955606  69.4210339   8.0350578
  78.8546515  33.1251264  14.4184732  78.3107519  33.4391046  13.6961019
  78.3168936  32.4631453  14.8530173  45.9035031   2.8288602  22.3181033
  45.9260766   1.9083833  22.0564890  46.7474286   2.9773854  22.7446747
  54.6932840  54.5707273  60.5496073  54.5696115  55.4890203  60.7897663
  55.0443363  54.6010971  59.6596241  14.3236566  69.2333317  46.4777803
  14.2417669  68.8129854  45.6217241  14.4496834  70.1609373  46.2780571
  48.4978342  62.2836065  39.2520356  47.7105427  61.9729042  38.8049698
  49.2178631  61.8351936  38.8085032  48.1193161  81.5842724  36.8879700
  47.3602819  81.4322281  36.3249564  47.9205990  81.1051655  37.6924586
  22.2472382  78.9331102  24.7917604  22.3733497  79.4222927  25.6047964
  21.4361668  78.4439182  24.9299216  54.7752762  79.0648174  10.5622923
  55.3465986  78.7021065   9.8853397  54.5300579  78.3105230  11.0981488
  15.3208630  14.5701169  30.0920916  15.1250498  14.0513753  29.3118334
  16.2567179  14.7596215  30.0250649  70.8004951  66.2722015  35.0310278
  71.0282183  66.6478395  35.8814788  70.5672646  67.0269823  34.4905233
  74.1059105   9.4514607  47.7476931  73.9188759   9.1813516  48.6467457
  74.7888462   8.8486528  47.4536562  15.8727360  48.7455082  22.5650382
  16.3303471  48.7608767  23.4056258  15.5762578  49.6466160  22.4372292
  56.5380239  75.3475571  13.0398822  56.0125208  75.6844568  13.7655401
  57.4359846  75.5967236  13.2585442  67.6290178  53.9083338  15.1369548
  67.7021408  54.1583490  16.0580289  67.3847532  54.7175407  14.6877921
  79.3064451  71.0650206  19.0630317  79.3935299  70.2930832  19.6222806
  79.5310020  71.8003893  19.6331549  40.0087309  78.2550716  34.9026895
  39.9093246  77.3324490  34.6679187  39.6210742  78.7320471  34.1688991
   5.0239318  33.3815049  38.1524086   5.1373570  33.5639428  39.0851903
   5.5987208  32.6351499  37.9827070  65.9571211  13.2107877  48.2966471
  65.2967302  13.5716867  47.7051544  66.3309757  12.4721383  47.8161621
  13.4928227  47.2110605  21.3508821  14.3460751  47.5464106  21.6260505
  12.8671456  47.6409531  21.9339371  49.2902517  73.9856577  16.5196335
  48.6793327  73.4570408  16.0062373  48.7312889  74.4977093  17.1040952
  40.3565836  71.8024731  16.2424934  41.0383320  71.7121363  16.9082940
  40.5601740  71.1249065  15.5977571  48.0547142  71.7668486  46.3570023
  47.6040173  71.8759632  45.5196285  48.1160831  70.8188391  46.4742327
  67.1776009  60.2472258   6.2374109  66.2997293  60.2461863   5.8558756
  67.0371962  60.4567242   7.1607894  15.4569602  74.4092703  37.0804358
  15.8198214  73.5512161  37.3002124  15.6963122  74.5427704  36.1633110
  53.7208223  27.8211975  11.6589534  54.3690062  27.7909994  12.3626423
  54.2261314  27.6656055  10.8610272  78.4551365   7.9326846  67.6578556
  79.3924100   7.7398516  67.6816548  78.0807955   7.2356011  67.1191816
  42.7861261  71.2271786  17.3625302  42.8528452  70.4344034  16.8302798
  43.3206081  71.0427904  18.1349063  16.5745490   4.8815583  64.9520063
  17.1613686   4.2290734  64.5697355  15.9557431   4.3706750  65.4738379
  35.5402160  79.2815304   6.2693840  35.1714611  79.5899296   7.0971173
  35.2908373  78.3584404   6.2252402  16.7892211  12.9725694  11.7359185
  15.9379237  13.0513047  11.3054252  17.2845738  13.7314271  11.4277112
  16.4603751  47.9228162  59.9357271  16.1090272  48.7375020  59.5764589
  16.2947409  47.2700166  59.2555428  16.1191266  14.8363256   7.2038412
  16.6087382  14.5057630   6.4506888  15.2038138  14.6494912   6.9952148
  65.1991415  68.9936399  23.8432670  64.3134832  68.9480972  24.2035055
  65.4737663  69.8977280  23.9963317   6.9533324  64.8555851  27.2420764
   6.1084914  64.4162512  27.1448064   7.5638205  64.1535807  27.4673080
  36.5135717  68.8832903  24.7981048  36.4299750  67.9785347  25.0992036
  35.7657647  69.0115690  24.2145276  29.1100955  47.4885464   0.6664531
  29.7111440  46.7963505   0.3910660  29.6409535  48.0599403   1.2213661
  38.7489510  68.5016823   8.6741859  38.3910632  69.2777252   9.1053569
  39.3815827  68.1500006   9.3005478  60.3767443  70.8361530   3.3553180
  61.3071251  71.0075808   3.2095879  60.2853107  70.8045721   4.3076175
  85.2273552  12.8896951   3.2117158  86.0734550  13.3320378   3.1433046
  85.0042335  12.6587247   2.3099928  68.7667179  73.6231995  41.9117498
  68.7680435  74.4748640  41.4748383  67.9775620  73.1890297  41.5877724
  59.5597649  33.6665583  24.0447235  60.0167322  33.4914875  23.2220674
  58.9707136  34.3931794  23.8415670   8.6546319   8.0107736  31.3644314
   9.4982999   7.5615644  31.4161325   8.3393901   8.0330609  32.2679567
  46.1775541  69.5342731  12.6869643  46.7918301  70.0475788  13.2117605
  46.1423540  69.9897385  11.8458104  17.2873342  47.1751881   4.9093959
  16.6905105  47.4860239   4.2286518  17.4762678  46.2687635   4.6666458
  69.7042480  81.2606122  67.5492473  69.7442212  80.3631570  67.2187804
  68.7698212  81.4305808  67.6683743   6.7366974  13.2370233  20.6861949
   6.5380280  12.9055070  19.8104918   6.4818232  14.1591977  20.6567025
  61.8943262  80.4836178  15.0518382  62.0646238  79.9571228  15.8328831
  62.5917578  81.1392212  15.0481713   0.8761407  35.8328438  19.7406352
   0.9287930  35.8801031  20.6952167   0.0165654  36.1974478  19.5298302
  13.8339846  12.5542401  39.5367765  13.2759993  11.9862603  39.0054822
  13.2505839  12.8983258  40.2131510  80.0185680  66.5146875  57.2028065
  79.2108345  66.0416269  57.0027685  79.7238398  67.3374796  57.5931692
  12.6195351  75.2374127  65.8555506  11.8730846  74.9930861  65.3084247
  13.0889669  75.8939507  65.3409408  25.5473654   6.8537473  26.4143658
  24.8528903   7.3708963  26.8224049  26.3242285   7.4102258  26.4694405
  43.5282326  79.4423342  15.7093263  43.8414145  78.5905743  15.4049349
  43.9582253  79.5672655  16.5553331  35.8175905  30.5926587  49.5344911
  35.3051527  29.9947573  50.0786935  36.7025669  30.5470063  49.8963819
  35.5683525  22.0342566  59.0767918  35.0364407  22.8230406  58.9713250
  34.9395330  21.3138462  59.0340470   3.2634147  39.2234017  63.5883872
   3.3161386  40.1733281  63.4830473   3.4436329  39.0749909  64.5166807
   9.2491524   3.4276246  19.4045317   8.8302272   2.7010869  19.8659277
   9.8553031   3.8002729  20.0447989  22.8630503  56.3423706  64.6669106
  22.3009689  55.9750058  65.3490750  23.2925804  55.5819012  64.2752217
  68.3520222  64.6469736   0.2627222  67.9022074  63.8768435  -0.0848443
  69.0386391  64.2895174   0.8257622  50.8699942  16.9187641  20.4409027
  50.8964014  16.0363603  20.8108997  50.2394962  16.8587673  19.7231936
   7.4680035  10.8661412  35.2796960   8.1480544  10.9161328  35.9514523
   7.3639624  11.7681169  34.9766111  76.1202049  59.8012257  16.6006744
  76.0017443  59.0908051  17.2311521  75.7593060  60.5723429  17.0381248
  83.8783638  12.1499967  21.7782831  84.0717308  11.2624883  21.4763284
  84.0191786  12.1170663  22.7244949  28.5182326   1.6622685  14.7614884
  28.0804007   1.3916444  15.5685174  28.9852660   0.8798265  14.4684100
  70.0822639  67.6364994  22.8147149  69.8571205  67.5868988  21.8856907
  70.7308674  68.3385134  22.8668261  67.9427592  17.7484654   1.1047786
  67.0450537  17.7865171   1.4347906  68.3337252  18.5784005   1.3778858
  49.8658466  66.9304848  28.8527560  49.7420311  67.7470636  28.3689165
  49.2955351  66.3014269  28.4108758  46.6890144  56.0282278  28.4401560
  47.2396994  56.0478163  27.6574731  46.0806751  55.3052568  28.2869649
  77.8618996   1.7727994   8.6683422  78.4071152   1.2114476   8.1171131
  78.4155266   2.5294255   8.8613284  32.6135850  67.3422956  46.2937880
  31.9405508  67.8535080  45.8444357  33.2705998  67.9878139  46.5543032
   8.4817393  55.6072689  70.2724535   8.1654795  55.8712365  71.1364738
   8.9357479  56.3803460  69.9371081   1.2519423  79.6006944  65.7788370
   1.4540211  80.1791360  66.5142281   0.8213535  78.8454845  66.1794375
  59.9096251  70.9915161   9.9352324  59.6828938  71.1067629  10.8580232
  60.1779747  70.0752258   9.8671591  21.8390012  66.4512396  17.9431272
  22.6676345  66.0203648  17.7334929  21.9669890  66.8003178  18.8251674
  60.7852404   5.6153249   9.7892785  60.3033249   4.9877404  10.3279221
  61.7060987   5.4388188   9.9818790  80.8463137   4.2419099  18.8770819
  80.8061974   5.1792096  18.6870992  79.9413053   3.9979219  19.0711534
  19.8078990  14.4294751  13.4960127  20.7015657  14.5366085  13.8217604
  19.4994509  13.6206043  13.9044476  79.6602106  64.8760939   9.8752099
  80.4446602  64.7300339  10.4039168  79.9709940  64.8402882   8.9705759
  13.8323172  37.8917624  60.0829397  14.2024239  37.8545023  59.2009734
  13.6161049  36.9827057  60.2905534  11.1350243  13.4983968  38.0112290
  11.2955945  13.4894513  37.0676351  11.3355582  14.3949842  38.2798195
  43.9257145  62.7002430  19.3748355  44.4623518  63.4748888  19.5427072
  43.9455414  62.2121620  20.1980114  85.6038229   5.7977151  37.6213765
  85.8962481   4.8878335  37.6745987  86.2476294   6.2865876  38.1339717
  44.7206545  72.7415419  37.4850321  44.8369074  72.7170563  38.4348297
  45.6027746  72.8775167  37.1391916  61.6133261  78.3356094  53.0978298
  60.8834171  78.8953876  52.8330421  62.2771788  78.9446497  53.4212542
  32.2150620  14.5140387  65.9608756  32.7017982  14.4840123  65.1372151
  31.3908012  14.0670611  65.7684211   5.1174395   7.2376775  44.9139261
   5.8863776   7.7657746  45.1285839   4.9852984   7.3771142  43.9762020
  56.1527912   8.0642556  37.1142149  56.4532678   7.2191667  37.4485183
  55.2159326   7.9417657  36.9608355  52.4850178  37.6786065  58.4936237
  52.5198698  36.8473673  58.0202770  53.2137966  38.1873441  58.1382370
  23.8833332  64.6637011  34.0940523  24.8073745  64.4308043  34.0038443
  23.7427807  65.3450727  33.4366274  45.1499891  65.5387306  19.8049295
  44.5229912  66.2087870  20.0771999  45.9378529  65.7265282  20.3150582
  47.6095438  80.4145050   6.1531353  46.8546581  80.8713150   5.7820463
  48.2026196  81.1144733   6.4261478  37.1202064  74.4568348  49.4727850
  36.6438770  73.6424446  49.3111801  37.3679018  74.7663641  48.6015415
  22.2055380   9.8782586  45.1619291  22.4709456  10.4194211  45.9055185
  22.1209471   8.9967679  45.5253267  42.8376198  56.7224360   4.2667338
  43.3520555  57.4482775   3.9135417  42.3835516  56.3585711   3.5066998
  74.5883457  13.9385842  18.7737262  74.6221392  14.1245793  17.8353775
  74.2682545  13.0381345  18.8280439  35.5770874  59.0472174  13.6920094
  36.1408615  59.5261002  13.0845034  35.4434347  58.1962681  13.2745767
  11.4909165   5.3700589  28.6694527  10.8729117   4.7429227  29.0449643
  11.3161605   5.3445291  27.7286863  46.4302158  78.9641953  31.7053676
  46.8899632  78.7787628  32.5241947  45.5136013  79.0637112  31.9625664
  82.4564750  22.3404814  67.1878381  82.7197940  21.4391591  67.0020433
  82.2378118  22.3388649  68.1197260  65.9747171  60.9553576  27.3114038
  65.9469986  61.1357307  26.3717604  65.0554276  60.9206915  27.5758576
  28.8430452  78.4321594  15.6363583  28.7043524  77.6150846  15.1574206
  27.9799843  78.6546183  15.9854579  74.2423391  65.5121231   2.3213658
  74.6893883  64.7440338   2.6769239  73.7895727  65.8949423   3.0728206
  47.3442030  79.5993900  14.9081862  47.1164417  78.6697388  14.8977304
  46.9478273  79.9520683  14.1114843  54.5910501  59.6575356  55.9043312
  54.4630671  59.6619177  54.9557352  54.6132612  58.7297440  56.1387300
  17.0625174  75.3712559  29.1013479  17.0170069  74.5863962  28.5553050
  16.1556590  75.5364799  29.3593001  81.5084267  77.9318810   5.0076163
  81.5565872  77.5284672   4.1409147  80.7637691  77.5037622   5.4300332
  78.2112829   9.0433358  36.2012982  78.7588541   9.6482991  36.7017269
  78.5185854   9.1324853  35.2991605  32.5511312  67.9956627  23.2747102
  31.8208313  68.4036112  22.8094411  32.4141216  67.0555162  23.1581903
  74.5422737   3.4277009  15.9068787  74.8068182   2.9003476  16.6606390
  74.1333477   2.8022622  15.3086758  14.2187841  61.5620591  64.1975079
  13.7865646  62.1033360  63.5368703  14.3931587  60.7332970  63.7514339
  21.3829970  49.6919012   7.7982038  20.9386635  50.5064917   8.0332357
  20.6733942  49.0715313   7.6313573   3.2967282  76.9392061  13.7851524
   2.7366067  77.1450281  13.0367279   2.8239537  76.2533712  14.2566895
  46.2616356  12.2020174  59.2330728  45.8256968  11.4009835  58.9423226
  45.5552347  12.7465559  59.5805083  66.3737599  14.1574525  13.9566600
  66.8245451  14.4990014  13.1844127  66.2318079  13.2312631  13.7610352
   2.2161286   4.5813035  20.8763027   2.8062003   5.3082799  20.6774426
   1.5779536   4.9508618  21.4865446  43.7845707  75.1914835  39.0799809
  43.6801291  74.4556284  39.6831727  43.1742620  75.0048828  38.3665848
  18.8290461  57.4280907  63.2246612  18.0377586  57.6921631  63.6940847
  18.9914282  56.5305306  63.5149233  28.1227930  69.1175629  69.1110778
  29.0296228  69.2096497  69.4033326  27.6174219  69.6471001  69.7278615
  54.3052864  75.1991749   1.3272317  54.1761923  74.2507410   1.3337551
  54.6970987  75.3816938   0.4731838  77.2947494   3.7979459  69.7960472
  76.9999878   3.5933732  70.6834555  77.9615013   4.4743299  69.9150896
   3.9643233   3.8511609  50.1532555   3.9866583   4.7344064  49.7849894
   3.1545108   3.8245629  50.6628895  80.9403269  21.3690995  32.4138832
  80.8492414  21.0182809  33.2998061  81.8812935  21.3408135  32.2406411
  40.4549416  35.1843716  63.9205424  39.9340685  35.9782006  64.0420233
  40.8503492  35.2874781  63.0549465  18.0776351   5.1693963   3.2582539
  17.2529404   5.0538968   3.7302467  17.8898423   5.8487748   2.6106423
  71.5938997  65.4665899  59.3109035  71.8825245  66.2443781  58.8334322
  70.9870529  65.0300312  58.7130880  36.7328501  79.9311543  11.0332823
  37.5788856  79.6501160  11.3818133  36.4996338  79.2554045  10.3967226
  66.1669540  29.3026209   4.8800868  66.3594437  29.3135190   3.9425042
  65.5934572  30.0569153   5.0156367  37.5449713  20.2097155  45.7137619
  37.0650633  19.3831660  45.7661210  37.5225456  20.4412867  44.7852670
  45.8065414  79.7870445  28.2758546  45.6206846  78.9743614  28.7462139
  46.2919760  79.5086670  27.4992681  80.9460985  43.6598635  48.9505339
  80.8466833  44.5872974  48.7355614  81.1596155  43.2421541  48.1161737
  58.2369232  70.1533270  30.6412244  57.3647261  70.5262470  30.7694268
  58.5283518  69.9173927  31.5219259  80.0942230  77.9261732  16.8295920
  80.7448483  77.3777246  17.2679162  79.3891001  78.0196333  17.4701345
  53.4054041  75.0656366  42.9793692  53.8132381  75.5742931  43.6802101
  52.6719999  74.6195078  43.4028196   4.1471100  74.7136593   9.7990340
   4.8439694  75.2461052   9.4154650   4.2172146  73.8697958   9.3526971
  38.4258612   0.6945969  61.3836853  37.9659565   0.9577824  60.5865334
  39.3198259   0.5110670  61.0949330  49.2120314  56.3754034  32.5460267
  48.7184858  56.6116953  31.7606568  49.1994333  57.1670008  33.0840278
  25.9879439   7.7164125  52.3063421  25.2381365   7.1286820  52.2137213
  25.7463496   8.4940099  51.8031502  66.3877106  73.9590931  32.6410365
  66.6933393  74.8044968  32.9698515  67.1888876  73.4596634  32.4831820
  68.6599724   7.5694703  31.7036867  69.0787975   7.8068589  32.5310087
  67.7254598   7.5385617  31.9085336  24.6346068  73.1325722   5.2042603
  24.5036602  72.3207283   5.6941551  25.5836535  73.1977701   5.0980026
  69.3039794   7.8496672  70.2952435  69.9120672   8.0454279  69.5824038
  69.1933889   6.8994738  70.2615800  57.8691912  78.2215881  60.9786034
  56.9153023  78.2747602  60.9194279  58.1100512  77.5366592  60.3548288
  19.4179099   2.4563455  26.3803220  19.1177409   3.1847714  25.8367085
  20.2975600   2.7115869  26.6583538  21.3861823  73.0724096  27.9943943
  21.3217711  73.9926100  27.7388406  20.9074450  72.6005125  27.3129582
  74.7830088   1.1472584  59.2160664  75.5539639   1.1133648  59.7823797
  74.5518048   2.0754744  59.1815387   8.0835766  53.8501406  21.9835234
   8.5281867  53.0529499  22.2716999   7.8472984  53.6765575  21.0723305
   6.1495741  15.5205370  62.0034264   7.0673378  15.2815176  62.1330814
   5.8991583  15.9592320  62.8164910  83.1620066  15.4619168   8.9392382
  82.7792208  15.5943250   8.0719590  82.7366487  16.1179208   9.4914758
  26.5486550  62.6677942   2.7787012  26.4936280  61.7139053   2.8361693
  27.2876024  62.8301859   2.1923396  57.9426615   8.7600373  48.1842470
  57.8898279   7.8780889  47.8160000  57.2040956   9.2272615  47.7937889
  75.6736366  17.1112393  25.6239510  75.3214638  16.2881517  25.9626627
  75.8157484  16.9454621  24.6919894  72.0289803  72.4529648  50.8007050
  71.1839008  72.0976639  50.5253315  72.3832130  72.8660297  50.0132227
  40.5948973  63.7603188  19.6955550  41.2277746  64.4196796  19.4110596
  39.9032044  64.2624474  20.1264405  24.4801045  51.2951183  25.0786495
  24.3402577  51.3399935  24.1327834  24.9451447  52.1044493  25.2906752
  22.4250197  68.2811499  11.2201798  22.8497577  68.1750298  12.0713961
  21.7021656  67.6538181  11.2333298  27.9813409  56.4748621   9.8782182
  27.1033907  56.2452412   9.5737350  28.3267593  55.6623173  10.2479362
  64.0438549  16.1249017  42.9742813  63.1450335  15.8991765  42.7346945
  63.9960258  16.3430928  43.9050531  65.4140949  55.2477789  10.9289539
  65.5630827  54.3172169  10.7613707  65.6555223  55.6803036  10.1098895
  35.6926353  29.9297167  55.0261937  35.1189621  29.6324946  54.3199442
  36.2171610  29.1605021  55.2484690  55.0316946   2.8590058  21.4340830
  54.0789382   2.9482316  21.4569902  55.2061169   2.0352124  21.8892455
  82.7330112  69.6759653  29.8662639  83.6822605  69.7990084  29.8614502
  82.3763657  70.5642414  29.8682451   4.4346898  16.2192487  26.0178828
   4.7790139  17.0575284  26.3260341   4.9342768  15.5623197  26.5027452
  57.2142180  47.5807454  61.2880503  57.9925402  47.9500271  60.8708273
  56.9425447  46.8726708  60.7040451  48.1673241  76.9980192  30.4930854
  47.5577450  77.3374319  31.1484098  47.6742840  77.0205784  29.6729398
  58.4906094  21.8580960   8.1673419  58.2562487  22.0958089   9.0644485
  58.5943381  20.9068250   8.1909502  76.8481390  24.5197534  19.8475230
  77.1476690  24.3301820  18.9583790  77.1745865  23.7881230  20.3713298
  68.4874551   3.9137029  23.5837626  69.3528311   4.2221879  23.3150840
  68.0258767   3.7492036  22.7614999  54.1859714  10.5921315   6.4037943
  54.6843974  11.3588571   6.6865343  53.3545296  10.9488629   6.0912651
  86.1818314  52.8347158  11.9407558  86.3777542  52.1798468  12.6108289
  85.9761333  52.3228502  11.1585069  65.4436159  77.2026777  10.4469717
  66.3029432  76.7884779  10.3680587  65.2910280  77.6027107   9.5908642
  86.8504326   2.1062326  32.3095965  86.0057489   1.9049024  31.9068408
  86.6679613   2.8424501  32.8934836  12.1478694   8.0594205  32.5217152
  11.5145772   7.3560952  32.6649332  11.8050759   8.7968587  33.0266047
  15.6297915  18.8369607  12.9761016  15.8306353  19.7047471  12.6256227
  16.0640519  18.2301377  12.3765886  21.2957089   9.4276284  65.3912544
  20.4591601   9.7202539  65.0296021  21.3286202   9.8177575  66.2647200
  17.4400895   9.0162515  21.3719606  16.5722268   9.3710946  21.5646434
  17.6239340   8.4239148  22.1010518  62.8053379  71.1135912  39.3411183
  63.5244894  71.3074684  38.7399006  62.0518017  70.9593487  38.7713599
   2.6421540  33.2388066  12.1807027   2.3302643  33.1967019  13.0846846
   3.3550780  33.8771485  12.2027910  31.5685694  16.2630986  19.2821717
  31.1588423  15.7790135  19.9991226  32.4487727  16.4632844  19.6005976
  32.4008942  79.9997330  21.0609460  32.1620989  79.5865011  20.2312207
  31.9010663  79.5188475  21.7206073  72.0847130  67.5575018  18.7108874
  71.4593124  66.8854380  18.9818823  72.5951815  67.1431017  18.0152416
  37.2757030  74.5224953  19.0571284  36.4705873  74.9160099  18.7207258
  37.8912187  75.2528620  19.1198802  71.3640730  21.6955518  40.4521894
  70.7146685  22.1342229  39.9025774  72.1918003  22.1232175  40.2326536
  11.8677704  48.8879441  40.5609322  12.2693722  49.2832517  41.3346720
  11.3481658  49.5927285  40.1742506  40.4798079  70.1460314  19.0633416
  40.7749653  70.6330347  19.8327219  39.5663428  70.4085016  18.9496553
  36.7752688  47.7912759   2.8927511  36.4610522  48.6944722   2.9342237
  36.1536544  47.3476838   2.3156446  67.4732494  73.4068823  18.4161758
  68.1456280  72.7406788  18.5586703  67.9323673  74.2389202  18.5308862
  63.5134888  80.4523563  42.5858116  64.4251919  80.7406998  42.5424147
  63.2540035  80.3400898  41.6713190  28.1394203  46.2506558  64.7608761
  27.9301985  46.7973114  64.0034978  27.8487356  46.7641903  65.5145411
  18.5402959  11.2952375  26.1141992  18.5588544  10.7101487  25.3568625
  19.4335024  11.2710713  26.4574742  74.6736376  25.1090859  18.2119989
  75.3358023  24.8116826  18.8359511  73.8641016  25.1462792  18.7214112
  40.9876926  59.9770142  62.8012405  40.6810768  60.8185841  63.1388520
  40.2261122  59.4008709  62.8666757   6.4740317   7.2921514   7.8310722
   6.7416804   7.0238065   8.7100410   7.2492402   7.1448850   7.2892302
   9.7830193  19.8242425  33.3817768   9.2707913  20.2714109  34.0554881
  10.5349915  19.4643067  33.8521147  40.7851267  72.5933123  39.6903944
  40.7007456  72.1849728  40.5520058  40.5631638  71.8967915  39.0724754
  44.5703983  76.2822008  58.3033752  44.1355562  77.0573568  58.6587334
  44.5363903  76.4024258  57.3543644  12.6734870   2.7712201   0.3632636
  12.6148026   3.6005639   0.8375853  11.9297354   2.2598695   0.6819877
  27.0933223  77.7559710  51.2710094  27.9852819  78.0762482  51.4054203
  27.1125698  77.3503065  50.4042387  11.4446600  10.6173827  68.1953327
  11.1362370  10.8383681  69.0741239  11.9477804   9.8117091  68.3136253
  58.5593033  79.2338228   2.2031786  58.8548326  79.6145487   3.0301875
  58.7400341  78.2980633   2.2921708  32.6313694  26.5217234  67.9584397
  31.9273527  26.5420700  68.6066501  33.4035547  26.8283106  68.4338000
  62.9011591  27.3509909  39.4349681  62.4702890  28.2057311  39.4330488
  63.7769182  27.5250079  39.7799407  80.2403164  58.7241983  29.7759604
  81.1708450  58.7174988  30.0002551  80.1688576  59.3660450  29.0694475
  56.1084652  73.9260960  42.6157856  55.3981733  74.3682528  42.1507931
  55.6696749  73.4277868  43.3052635  71.4471857  21.5498399   8.2978445
  72.0884077  21.6470193   7.5938368  70.6000416  21.5522336   7.8522354
  47.0627642  77.7069569  33.9588881  46.2203074  77.4309778  33.5978699
  47.4555969  76.9007683  34.2935133  59.7671652  75.5438566  31.5083361
  59.6999502  74.7490549  30.9791875  60.5725574  75.9645653  31.2073779
  10.1630776  34.9226808   1.5787561  10.8349698  34.3636083   1.9689156
   9.8026173  34.3997811   0.8626061   2.1921675  18.9319085  46.4138317
   1.7802947  19.0106820  45.5533743   2.4263518  19.8293828  46.6503382
  24.4343686  33.3546853  40.0583553  24.5736861  32.6234341  39.4566154
  23.5071588  33.3009887  40.2899361   3.3159359  78.1001697  33.8686299
   4.0354045  78.5422916  34.3193269   2.5248321  78.4934152  34.2370629
  72.6989570  50.2868273  57.0027934  72.7855697  50.9440794  56.3123225
  71.8909135  50.5230441  57.4583207  64.4199657  16.6631162  22.7592182
  63.8992262  17.2299469  22.1902180  65.0296450  17.2575998  23.1963825
  19.4794416  45.1546335  46.2760019  19.4983423  46.1018848  46.4123297
  19.1585147  44.7996998  47.1050119  18.1683357  67.0814610   0.3386505
  18.3569057  67.9626203   0.0157966  18.8555725  66.5346981  -0.0421250
   1.4414416  20.1884913  40.8782625   1.8290855  21.0543585  41.0056925
   1.4304139  20.0684023  39.9286890  26.7976117  15.0772905   1.3728158
  27.4677205  15.0925064   0.6894745  26.4927983  14.1700697   1.3892034
  14.9189222  43.4983730  35.0108194  15.3611791  42.6566076  34.9009466
  14.8297656  43.8400173  34.1211224  24.0008354  27.6237679  42.2008419
  24.0615916  28.3560133  42.8143215  24.9071383  27.3448133  42.0703316
  77.7096314  76.2910993   9.0616727  77.4807758  75.6888462   8.3537537
  77.6343627  75.7647688   9.8576266  79.6875889  64.2897786  18.6855328
  79.4395716  63.8995267  17.8474259  79.9958403  65.1672829  18.4592617
  66.3228956  28.2828214  69.8893203  65.8507171  28.8630166  69.2921168
  67.1731177  28.1485977  69.4705826  48.5013103  42.5300121  14.5616007
  47.9910135  42.2880888  15.3344536  48.2165241  43.4203529  14.3556190
  72.5958235  65.1857139   0.2121451  73.2311280  64.9356640  -0.4587461
  73.1213410  65.3231395   1.0002928   2.8742758  71.5883782  69.6514259
   3.2582537  72.4625327  69.5832435   3.3997313  71.0491969  69.0603155
  60.9679031  34.6567416   5.4263610  60.2422810  34.7691679   6.0404146
  61.7515898  34.8338246   5.9466588  85.0009477  42.5772524  16.5257454
  84.8943869  42.6561594  15.5777729  85.8439627  42.9926538  16.7074025
  54.5030251  48.8900360  58.8977335  54.6485868  48.0007692  59.2206083
  53.8790574  49.2702200  59.5160828  63.3126178  68.3045199  61.1713372
  62.5546875  67.7299764  61.0632853  63.9405861  67.7814343  61.6696034
   7.7424723   5.2037156   9.5796007   7.7181190   5.4386330  10.5072069
   6.9981492   4.6133932   9.4624060  34.9237347  49.9315786  28.0480146
  35.4390740  49.3161631  28.5694742  34.0357971  49.5744610  28.0644155
  32.1216679  44.3467712  10.1319373  32.2196651  43.4072351   9.9773258
  33.0041385  44.6470356  10.3494596  30.7615497  30.3852334  59.9013208
  30.2705258  29.6009436  59.6563373  30.7384057  30.9363874  59.1190646
  18.5155964  29.9079180  15.0889766  17.6401854  30.2017689  15.3410459
  18.3611548  29.1423011  14.5356154  26.4505219  23.2585907  10.9113669
  25.6132770  22.8199935  11.0626447  26.7773294  23.4598970  11.7882383
  40.9720659   1.4117078  31.4646149  40.3769398   1.1658661  30.7563663
  41.3475943   0.5824890  31.7605972  23.6135387  24.7627640  39.3225551
  23.5481739  25.0174308  38.4021711  22.9402184  25.2813387  39.7629523
  31.5561557  21.1758924  24.9481726  31.0379219  21.6545677  25.5951166
  31.4926648  21.7038751  24.1522861  63.1175708  34.5997667  18.8113213
  63.6121010  35.4118872  18.7011778  62.6388048  34.7202253  19.6313858
  79.4644800  79.4137838  52.9226671  80.2689901  79.9192526  52.8064607
  79.7175470  78.5120251  52.7251302  50.7276392  28.0057096  25.5558205
  50.3042793  28.8577247  25.6610227  51.6069221  28.1293964  25.9133029
  30.9152671  26.1008456  70.0976324  31.1666509  25.1788297  70.1516978
  30.9696747  26.4172091  70.9994005  32.1599650  18.8931239  23.4758043
  32.0177269  18.0356133  23.8766456  31.8427753  19.5179224  24.1279173
  30.9347136  55.7376888  68.3212635  30.0812554  55.4194190  68.0270781
  31.1552663  56.4361741  67.7050589  47.5759068  41.5218080  55.2997492
  46.7186680  41.2775782  54.9508582  48.1082144  40.7323473  55.2016006
  35.9369206  37.7768588  31.6742253  36.6482353  38.4129167  31.5987754
  35.4364800  37.8800583  30.8648157  11.2378700  54.0228558  28.0758810
  11.6878422  54.8282624  28.3309865  10.4356344  54.0210153  28.5980368
  19.2393208  17.0545208  12.6539361  18.8156986  17.4751377  13.4021723
  19.4451189  16.1714005  12.9604912  83.3013875   2.8676058  50.1655422
  83.5873563   3.7787844  50.1006542  83.0758054   2.7525307  51.0886346
  21.1477900  35.8260250  23.1276870  21.3995671  35.1111364  22.5430727
  21.8918371  35.9227037  23.7220597   1.9082506  50.4736138   9.2177200
   1.6127713  49.5685650   9.3167526   2.7621515  50.4954172   9.6497047
  49.9091013  29.0036751  44.3477259  50.5872782  29.5297076  43.9239441
  50.3774221  28.2454230  44.6969567  22.0682979  15.8290088  42.3798895
  22.6021194  16.3055325  43.0156469  21.9220114  14.9734306  42.7833986
  33.4825349  12.2411561  39.8953223  33.8641453  11.3946998  40.1279545
  34.1613793  12.8787827  40.1163054  58.8174930  22.4906708  63.1107186
  59.6863724  22.1151759  62.9682861  58.2145896  21.8477370  62.7373813
  66.0618687  58.4564447   0.1679234  66.2923336  59.3822813   0.2450090
  66.7951059  58.0658817  -0.3075311  30.0868423  10.9152247  58.1717370
  29.4124086  11.1021019  58.8247679  29.7678669  10.1375605  57.7137767
   4.7902210  35.3247191  45.4352675   4.0899594  34.7393490  45.7237182
   5.5904229  34.8094918  45.5375038  50.7413578  30.8669353  30.6124973
  51.4998627  30.8433795  30.0291061  51.0646677  30.5111146  31.4402008
   3.9622515  48.0045748  21.0880446   3.2601920  48.6204910  20.8783031
   3.9049163  47.3349047  20.4065108  43.6615992  42.5452185  13.9169025
  42.8811789  42.1122646  14.2629218  43.3635950  43.4239006  13.6816621
  62.4986362  22.6124787  12.5158072  61.9756031  21.9526196  12.0605540
  63.3187580  22.6494431  12.0236003   2.7002355  76.6272736  26.5185070
   1.7470029  76.5465784  26.4858365   2.9236245  76.4589024  27.4339199
  20.5756283  58.8590908  26.2988138  20.0592875  59.1457748  25.5455303
  20.2131701  58.0027151  26.5256929  48.0071163  22.7327299   1.8360949
  47.4030161  22.3460317   2.4699417  48.8714361  22.4277687   2.1121010
  71.8990803  36.2255859  11.4058924  71.7223310  36.0759354  10.4771304
  72.5278044  35.5438614  11.6429329  69.4638315  81.1257102  59.1714094
  68.8094106  81.3194110  58.5002552  69.3464628  81.8140628  59.8261057
  39.9191959   2.3717619  70.0732234  39.5890196   2.2204234  69.1876098
  40.5944593   1.7042519  70.1944107   1.6537316  17.7698685  70.0998828
   2.6004131  17.7701451  69.9583633   1.2801583  17.8352286  69.2210184
   3.3266051   6.1727692  28.7618814   3.2010730   6.7496230  28.0084167
   3.6875208   5.3680254  28.3899151  79.3370452  48.4843513  48.2716904
  80.2238860  48.7577065  48.5062490  78.7708011  49.1549321  48.6536871
  51.2933540  53.9282656  12.3888850  50.8366585  54.7082281  12.0737433
  51.0297775  53.2353449  11.7833912  34.6988130  28.2937860  31.4396811
  33.7794447  28.2129669  31.1857891  35.0847244  27.4472046  31.2147284
  58.2383680  35.1036930   0.9745532  58.3009434  35.7935095   1.6352114
  59.0291882  34.5792460   1.1002260  59.8650470  77.7443340  67.8790124
  59.2712942  78.0801513  67.2075085  59.7317901  78.3246639  68.6284737
  74.2816067  27.7045631  17.2939157  74.9217415  28.2401299  17.7625632
  74.3969679  26.8246698  17.6526773  40.5450916  21.8279886  26.3873076
  41.3410807  22.2139668  26.0217237  40.2715492  21.1816406  25.7364297
  19.1353512  48.3569670  17.5739849  18.2548428  48.6904669  17.4016047
  19.6832001  49.1404533  17.6213658  24.8500538  14.4792867   7.8691643
  24.5385790  14.1850865   8.7251204  25.6128812  15.0230348   8.0658001
  19.2475021  36.8020964   8.2611340  19.6058023  36.3723397   9.0377682
  18.4129035  36.3597488   8.1061995  75.3737783  80.6459236   9.3279845
  75.6634474  81.5103817   9.6195924  74.7039270  80.8275414   8.6687863
  55.8132648  30.4712129   6.4817470  55.9407473  29.5527053   6.2444144
  54.9443626  30.4966712   6.8824899  11.4394462  50.7391167  30.1738095
  11.8573165  51.4967442  30.5832219  10.7369947  50.4976940  30.7775545
   9.4519889  18.6328661  28.5606432   8.6876762  18.1260002  28.8347697
   9.8894155  18.8681102  29.3789029  17.6228106  27.9488540  68.3414793
  17.0412993  27.1908140  68.4002256  18.3639169  27.7264452  68.9049721
  57.9752850  77.9098129  26.3049626  57.4913382  77.4461699  26.9883847
  58.8953494  77.7330446  26.5010977  70.4160037  46.6122099  34.2455350
  69.7960487  46.2749019  34.8921500  71.1239257  46.9904932  34.7670494
  38.8377833  39.5975804   3.8189965  39.4619536  39.6785212   3.0978224
  37.9946041  39.4501352   3.3905822  17.0571589  63.6597347  38.0915165
  16.3039124  63.0695868  38.0674553  17.8133452  63.0885315  37.9568338
  41.3035679  29.4949150  12.1850049  42.1918154  29.8461270  12.1225643
  41.2915468  29.0203214  13.0161786  51.3904476   0.4683997   7.1239120
  51.0590458   1.3661903   7.1433347  51.9453526   0.4347278   6.3446951
  84.8992601  45.3328528  67.2022380  84.1166559  45.4220011  66.6583501
  85.5293336  45.9417828  66.8169527  56.3581958  76.3874128  52.8430305
  55.7139197  77.0805051  52.9871248  57.0217576  76.5332796  53.5172997
  77.4160686  38.5497344  38.1956230  76.5473285  38.6443899  38.5862194
  77.3238292  37.8228774  37.5796662  38.8095331  10.3958488   9.6195960
  38.9962053  10.2844310   8.6874092  39.6360397  10.1888263  10.0557864
  41.6422272  62.5618362  28.9221358  41.2234640  63.3987522  29.1232395
  42.4331427  62.5541067  29.4612336  33.1618810  29.6716833  22.0479131
  32.7506447  30.3651214  22.5639153  32.7272058  28.8689756  22.3359203
  78.5042810  37.2525048   4.8825780  78.0472422  37.6007915   5.6481141
  79.2609787  37.8283525   4.7728747  85.0753274  68.6487582  69.7996407
  85.5045953  67.8038480  69.9341261  85.7955518  69.2762520  69.7382834
   4.2079321  72.5677135  58.5390161   4.8341957  72.0782974  58.0056320
   4.7231165  72.8888347  59.2790829  52.2432613  36.6238499   9.8354477
  52.7902699  35.8398438   9.8839033  51.4911890  36.3588166   9.3059385
  15.9633446  12.5703299  20.6935954  15.4472017  12.2103429  19.9723208
  15.3286588  13.0491197  21.2266684  64.0447584  61.8458893  31.7992340
  63.9369407  62.2480132  30.9373175  63.2373109  62.0604994  32.2663556
  29.4405516   7.4120022  50.7406388  29.5575054   7.8466679  49.8958789
  28.5491188   7.6389338  51.0053776  38.6862993  17.8506088  26.1646676
  39.5211697  17.6314592  25.7509089  38.0241084  17.5364792  25.5489898
  25.9463707  78.0734446  67.4306457  26.5083042  78.5800912  68.0169649
  25.4776302  77.4716570  68.0088885  62.8435612  79.7566605  17.5702357
  63.7421989  79.5809889  17.8492033  62.4775362  78.8922262  17.3831415
  30.8040913  22.0269514  60.3119539  29.9359997  22.0167424  60.7151233
  30.6759604  21.6160036  59.4570063  73.8227701  68.2693624  46.4024448
  74.2723942  67.5131941  46.7796516  73.7772560  68.9027643  47.1186543
  37.6035412  17.0420052  64.5908938  37.9818781  17.3300625  63.7601612
  37.6471050  16.0864569  64.5553718  70.9901729  60.4824664  52.8009520
  70.1171365  60.4092469  52.4153565  70.9076801  61.1815932  53.4495269
  50.7747459  48.3330727   4.5878169  50.5063248  49.2292643   4.3852550
  51.4410973  48.1285572   3.9317852  62.6662397  49.2072344  22.7925324
  62.8914785  48.3508635  23.1560302  63.4577608  49.4882679  22.3334599
  35.4715824  16.9937885   4.2774057  34.5438266  16.7584801   4.2888948
  35.9064698  16.2759173   4.7375876  30.5536246  23.0247092   5.6851572
  30.9737897  23.8796234   5.7790488  30.5514765  22.6603842   6.5703094
  35.1374173  18.9450514  22.8495812  34.7548079  19.7453046  23.2093549
  34.3959355  18.3474588  22.7530384  43.4563112  64.3769932   7.7279001
  44.3193340  64.7902584   7.7026916  43.6129808  63.5191488   8.1225961
  82.5210157  76.9699004  52.5018404  81.7490068  76.9020512  51.9400309
  82.1682039  76.9995191  53.3911548  21.0320258  18.6645198  33.5575581
  21.9826198  18.7351775  33.6447835  20.8374667  17.7555311  33.7858534
  62.2109785  64.6226027  67.2739188  62.3695722  63.8599088  67.8301377
  61.3363376  64.9221732  67.5218980  39.6893334  26.5982962  10.7634783
  38.8091969  26.7379403  10.4140639  40.0870132  27.4689722  10.7658648
  45.3564508  22.8001620  46.2251936  45.2520473  23.1074025  45.3246723
  46.3037308  22.7661969  46.3583670  82.9661877   6.6486384  52.5029968
  83.8729222   6.5542294  52.2111843  82.4587734   6.1278607  51.8804620
  67.0714855  52.9893875   2.3273388  66.9118452  53.9308167   2.3941344
  67.1006060  52.6864100   3.2348570  11.3775309  21.6639019  66.4734311
  10.8030136  21.2329079  67.1062092  10.8112820  22.2917439  66.0246460
   0.6725772  79.0726579   8.4281898  -0.1337020  79.0496800   7.9128075
   1.1104067  78.2460875   8.2249230  36.7790270  54.5247555   9.5966721
  36.8459797  54.3505716   8.6578381  35.8695388  54.3201828   9.8139626
  46.4667539   6.5178155  21.8415809  45.9979753   6.4294862  21.0117149
  46.9226353   7.3565148  21.7710590  61.3831582  59.3007352  66.9622113
  62.0789399  59.7857931  67.4058773  60.8575502  58.9324655  67.6723839
  39.9031186  32.4889684  21.6328979  39.3590927  32.9831290  21.0196495
  40.2511597  31.7639732  21.1137843  68.3714819  76.2065172  31.0282779
  69.0530491  75.7150030  31.4866590  68.4730339  77.1054602  31.3410401
  25.6374159  80.1505830  48.8924561  25.9033915  79.3877985  48.3789883
  24.7239291  80.2976897  48.6472331   2.5728036   8.1957352  43.9179754
   2.9915620   9.0559644  43.8882685   2.8393174   7.8286004  44.7608423
  52.7949524  68.9015961   9.5383561  52.7528954  67.9799128   9.2834759
  52.3871231  68.9296007  10.4038751  36.4366603  48.0923748  30.7930779
  36.6209126  47.9522276  31.7218637  36.0335183  47.2741938  30.5027556
  38.1018265   2.1326806  50.8295379  38.2594259   1.8799569  49.9198542
  37.1793659   2.3873116  50.8510099   4.8552755  61.9872189   6.4214098
   5.4455000  62.4322748   7.0295167   4.6740779  62.6384258   5.7436734
  34.5683813  32.0238614  19.5263398  35.4285693  32.0721197  19.1092288
  34.7128105  31.4979649  20.3129816  75.3840871  77.6190839   8.8822693
  76.2958057  77.3278801   8.8681132  75.3220351  78.1743113   9.6595103
  13.3973797  30.8054043  65.8078639  12.8702505  30.4408671  66.5188302
  14.2511471  30.3829123  65.9017803  85.1907268  65.9571888  61.6639362
  85.4911533  66.7972686  61.3171773  85.1441255  65.3848436  60.8981155
  67.0527839  38.2925749  11.0933352  66.2085008  37.8618813  11.2272120
  66.8279933  39.1650891  10.7701933  26.3497273  72.6776340  64.7111331
  25.7045475  73.3152058  64.4053893  27.1477715  73.1892493  64.8438243
  42.8121415  78.3715989  59.7853862  42.1822193  77.6531174  59.8420785
  42.2947696  79.1210272  59.4905721  35.4351068  54.2244864  34.9532795
  35.6464195  54.1887522  35.8861780  35.4395175  53.3097172  34.6714902
  19.5261208  77.4760463  34.7243248  19.3675915  78.0494192  33.9744316
  20.4796043  77.4132135  34.7804414   7.5600410  54.0521765   2.3886080
   7.4845576  53.7269115   1.4915359   8.3155495  53.5878611   2.7489546
  54.9481106  31.2213492  12.8896236  54.8833752  32.1749377  12.9417002
  55.8404398  31.0258889  13.1755817  59.9278021  23.9820409   2.4077682
  59.0977287  24.4264436   2.2353818  60.3916025  24.0078092   1.5708348
  15.7767761  66.1285830   1.5849666  16.2461138  65.5065918   2.1409173
  16.4620221  66.5521908   1.0680281   6.2115160  50.2771618  62.1973316
   6.7548910  49.7948875  62.8205417   6.6341082  50.1342722  61.3504349
  31.6536093  34.2075443   9.6191585  31.3814759  34.3628788  10.5236173
  31.8727493  33.2761741   9.5915723  72.3112726  77.1417093  17.0643091
  72.8670597  76.3876963  16.8673468  72.6842642  77.8557396  16.5473282
  29.9343872  45.4811144  11.1170244  29.1439915  45.2177095  10.6457245
  30.6544971  45.1421785  10.5852377  52.0060015  38.6267042   6.7918128
  52.5625801  37.9383755   7.1560317  52.5154972  38.9879298   6.0664427
  32.0164800  20.7356477  33.5276389  32.5984883  20.2392364  34.1030264
  32.3033786  21.6438937  33.6225772   7.1278389   5.4111124  29.2627941
   8.0400498   5.2012326  29.4629417   7.0059283   6.2976242  29.6025930
  49.3767929  48.3873034  18.6346865  48.7412596  49.0982103  18.5513937
  50.1532364  48.8028765  19.0097368  22.3655613   3.5982109  62.5252484
  22.9812296   4.0250994  61.9294725  22.8646143   2.8772713  62.9092042
  34.4979882  33.9576340  22.9758763  35.0060630  33.7318158  22.1967101
  35.0082445  33.6051393  23.7049985  49.8448434  70.8243992  63.5035972
  49.3018880  71.1461403  64.2232601  49.9435845  71.5785053  62.9223870
  78.8480392  61.4353969  64.3498646  78.3369604  60.6707408  64.0846686
  79.1214576  61.8382885  63.5257564  51.8631268  10.0463247  46.2487936
  51.4598227  10.5803049  46.9332266  52.5435495  10.6075418  45.8769178
  40.4554129  36.6581726  21.9631481  40.6453228  37.5314832  21.6203690
  39.5674086  36.4696264  21.6596246  10.2427156   0.4118754  53.9767264
  10.8263929   0.6509711  53.2567368  10.7361515   0.6296755  54.7674952
  33.8230181   7.2502691  46.6031647  33.3057094   8.0455273  46.4759302
  33.3181715   6.5638208  46.1671019   2.4129279  21.4325501  62.6524691
   2.0370062  20.5543496  62.5918327   3.2290967  21.3107516  63.1375079
  52.0111084  30.8788872   4.8738766  51.3442850  30.4006147   4.3810931
  52.7131844  31.0311389   4.2413107  20.7444914   4.5163132  57.0022069
  20.9203251   5.4223753  57.2559057  20.8894499   4.0111472  57.8022240
  55.7282117  14.7493292  68.5064915  55.2449683  14.6901490  67.6823525
  55.1468433  15.2362133  69.0906019  42.5695372  48.6367130  31.6156197
  41.7007303  49.0184546  31.4904189  43.1295872  49.1086102  30.9992695
  10.3348243  71.9711685   4.2814907   9.5509660  71.9013071   3.7365893
  11.0619557  71.8390560   3.6731666  31.4142442  65.0938320  16.3088548
  30.8608747  64.4004250  16.6682994  32.2880578  64.7053480  16.2668538
  70.4876819  78.7841990  34.3022095  69.7516647  79.3871667  34.1976105
  70.6246820  78.4195330  33.4278618  32.5177725  16.8299557  54.6631800
  33.4677799  16.8774296  54.7702859  32.3268278  17.4362923  53.9475511
  14.8332611  68.2171466  43.7187157  15.4257217  67.9210904  43.0276500
  14.5659843  67.4138882  44.1654478  55.2886438  23.1323719   2.6235709
  54.5776176  22.8141952   2.0672992  55.5973148  22.3535681   3.0866265
  12.1548803  80.3508281   4.2914081  12.5493391  80.3206905   5.1630306
  11.5775116  79.5878831   4.2632940  80.6200314  49.8829365   5.9848118
  80.4345131  50.6689930   6.4985490  79.9284840  49.2680645   6.2296206
  58.9866543  42.7018881   7.1425229  58.1105757  42.3209572   7.0823759
  59.1858864  42.6977015   8.0787492  65.3903580  31.9332504   4.6125507
  64.5625734  31.4869499   4.7909316  65.1326704  32.7719951   4.2300105
  74.3599319  25.1331711  32.7672863  74.2549753  25.9355760  32.2560525
  75.2373314  25.2020192  33.1436610  31.4762743  13.2043291  58.5740589
  32.1762760  13.1627346  59.2255948  31.0281761  12.3618914  58.6498283
  25.0701571   9.1941887  15.5201924  25.4991102   8.8085318  14.7563207
  24.3983102   8.5576326  15.7644236  36.7155051  20.4477572  26.2510967
  37.2047448  19.6429896  26.0801435  35.8016253  20.2104902  26.0937405
  48.9061537  48.7663301  62.7242999  48.1999662  49.0061124  62.1242706
  49.3648806  49.5888831  62.8952037  10.4998314  62.9594135  29.8936534
  11.2407994  62.3539495  29.8688745  10.8943772  63.8252020  29.7888827
  55.6707039  57.9990389  66.0409020  55.8692780  57.7470269  66.9427283
  55.5819502  57.1681418  65.5740361  22.0895028  71.1934280  16.9995165
  22.4367118  71.1279297  17.8891158  21.1396194  71.1499119  17.1093380
   6.3079246  36.9606663  54.7785638   5.4128464  37.1549155  55.0566529
   6.6674431  36.4248635  55.4855953  31.2136507  32.0738626  41.1270428
  31.9877100  31.8813729  40.5978823  30.4757380  31.8149781  40.5750513
  23.6115797  79.2806769  13.1445158  23.4819515  79.2130289  14.0904820
  24.4024761  78.7691803  12.9739606  32.1063638  31.5335655  29.2810392
  31.9018340  30.9085131  29.9765325  32.7944565  31.1069751  28.7703705
  32.8409052  41.4574242  10.5860925  33.2713747  40.7393456  10.1221013
  32.8240681  41.1756134  11.5007126  40.6756830  63.4620428  16.5883088
  40.1481962  62.9699516  15.9591520  40.0400114  63.8092232  17.2141027
  33.0303057  67.6685406   8.0997825  33.6247213  67.0232070   8.4824705
  33.3273895  68.5070277   8.4532148  40.1344538  44.1622496  16.0890532
  40.2307940  43.7697268  15.2213693  39.4161344  43.6758184  16.4935684
  83.7316704  15.7784867  25.3572273  84.3693542  15.0658345  25.3158808
  82.9787445  15.4551685  24.8624539  62.4420452  25.0732708   5.4817593
  61.9603920  24.4109249   4.9862379  62.0557594  25.0454307   6.3571113
  79.3483177  75.3598311  66.1409695  79.7542587  76.2154820  66.2799184
  79.0852704  75.3661396  65.2206449  49.0789938  10.7753754  38.7076330
  49.7708702  10.4724634  39.2956638  48.9033651  11.6738296  38.9872169
  37.9876447  47.2642517  27.6512432  37.6673746  47.8664970  26.9797111
  38.4497786  47.8245449  28.2747269  68.5914421  36.0446858   4.9263829
  69.4899368  35.8535123   5.1954365  68.0480051  35.5321336   5.5248797
  20.2174330  36.3001132  10.7475662  19.4349968  36.1031842  11.2625861
  20.5604577  37.1068144  11.1320114  77.8945160  19.5097804  17.1575785
  77.8295994  19.5072174  16.2025857  78.4453869  20.2664447  17.3581672
  65.2607265  72.8957965  59.5045172  65.1083675  73.4244254  60.2878235
  64.9030342  72.0352461  59.7230182  50.4476261  31.6052985  13.4536159
  49.6514511  31.1216712  13.2335269  51.1578226  31.0739541  13.0937207
  40.5877638  36.6834402   9.6829611  40.7162952  37.4896312  10.1827288
  39.6468592  36.6568446   9.5091087  15.7394981  54.3716669   8.5410088
  15.9603608  54.5000887   9.4634831  15.1541519  55.0994253   8.3313137
  48.2655334  37.9571104   2.6878601  47.7462053  37.9418540   3.4917864
  47.8345013  37.3253560   2.1122509  78.0552340  10.5796766   6.2867165
  78.0457878  11.3169551   5.6763381  77.2231102  10.6458569   6.7551380
  80.7123566  36.5381217  12.0881271  80.5093098  35.9467745  11.3633442
  81.2989712  37.1914792  11.7070282  13.4829529  10.3075959  51.6896044
  13.9385756  10.9216906  51.1138163  13.6888941  10.6106163  52.5739120
  31.8199748  53.2838037  62.0068167  31.9153839  52.5051441  62.5552849
  32.2280964  53.0425265  61.1752795  19.3491180   7.3155524  52.7930067
  19.5583065   8.0911900  52.2725664  18.4692152   7.4835993  53.1302963
  25.1347947  59.1018724  19.0250790  25.8558941  59.6907616  18.8026905
  25.4815602  58.2252693  18.8590991  21.7250991   1.8256840   5.8572006
  21.1782098   1.4388202   5.1734763  21.6293454   2.7701709   5.7346952
   0.9572807  74.2605736  42.6503192   1.8343226  74.5639040  42.8848730
   0.3666035  74.8622181  43.1034814  32.7367973  31.5110588   9.1087270
  33.3295059  31.7062640   8.3829021  32.5395608  30.5793118   9.0129405
  33.7501669  26.2017274  27.6202059  34.5080066  26.6778493  27.9596472
  34.0929079  25.7037830  26.8780422   1.1311467   0.0641753  69.2413466
   1.6467698   0.0298859  68.4356244   0.2649100   0.3577258  68.9590444
  63.1039992  54.8359051  58.9869617  63.7494436  54.3726995  58.4530400
  63.1857577  54.4430652  59.8559986   8.1039661  46.2470055   1.1248937
   8.3207959  46.0965109   2.0449854   8.1140816  47.1993446   1.0291049
  81.7238775  26.1591592  52.9045628  82.3181882  25.4682865  53.1973408
  81.5486064  25.9512951  51.9867907  13.4561649  70.9661367  68.0179761
  13.2347408  71.7648938  68.4967163  13.7925926  71.2762835  67.1772282
  38.9440258  16.1271073  57.0626210  38.3338173  15.8041645  56.3996063
  39.7973497  16.1146237  56.6291319  46.2115812  20.1283884  49.8152494
  45.7005882  19.3898129  50.1463461  45.7687092  20.9017706  50.1644993
  14.2601927   3.3120991  39.0747367  13.7293346   3.2431580  38.2812177
  15.1134213   2.9583289  38.8235865   8.2284135  48.4151077  41.3928270
   7.9689443  49.2913580  41.1080599   7.8880280  47.8321362  40.7142115
  39.5412734  66.5059140  69.3719739  39.3966737  65.5632593  69.2899534
  40.3377130  66.5812185  69.8975642  26.8441875   0.2725912  66.8156309
  27.1105345   1.1606671  66.5777023  26.1543806   0.0534941  66.1892150
  15.9063637  24.6630955  46.8474674  16.4375889  25.4298854  46.6328430
  15.0184309  24.9057841  46.5849590  64.3517971  30.7089901  18.0963051
  64.1887474  30.1794052  17.3158014  64.3846178  31.6091323  17.7724218
  65.3353443  68.7382676  65.7263349  64.7908750  68.9382913  64.9649046
  64.8979869  67.9971387  66.1454745  27.8716755  10.8125496  23.3880663
  27.2579169  11.5428257  23.3091331  28.0519795  10.5525041  22.4846864
  32.1034431  28.0859828  13.5398138  31.7685103  28.8873053  13.9422238
  32.9027104  28.3598709  13.0899370  16.8955410  23.1018448  30.6968164
  17.5824606  22.5018096  30.9872150  17.0284843  23.1788683  29.7520280
  41.7044735  77.2041559  -0.2224279  42.1118069  78.0483437  -0.4165002
  41.7930603  77.1078253   0.7257835  53.8998165  63.4520581  70.2977541
  53.8723317  62.5520661  69.9729660  54.6720853  63.4793570  70.8626325
  33.0451830   7.4435641  58.1831799  33.1415136   7.3580243  59.1316710
  32.4882753   6.7068221  57.9315852  79.3959236  42.0677280  30.8168173
  78.4895849  42.2958899  31.0235143  79.7482300  41.7201471  31.6361451
  85.3739436   4.7597100  67.2213079  85.9580786   5.1526524  66.5727608
  84.7560174   4.2423798  66.7048104  18.2380044  50.8275986   8.1578255
  18.5894883  50.2840376   7.4526799  17.7025437  50.2284241   8.6779225
  22.8324612  32.7433802  69.0587103  23.6177500  32.9787613  68.5645974
  23.1014355  31.9974019  69.5948088  13.6524876   4.6902062  63.6226891
  13.7183960   4.1790368  62.8160982  14.5422133   4.6964909  63.9756457
  36.4574583   0.2567316  52.6097213  35.6582029   0.0433327  52.1281813
  36.6836651   1.1401726  52.3188613  14.7301137  61.3045120  18.8409674
  14.3419230  61.0218096  19.6689880  14.3807614  60.6939268  18.1918395
  70.3862333  27.7973771   0.3568936  69.7254848  28.1499362   0.9530009
  71.2190390  28.1094217   0.7108591  37.3126626  66.7454147   7.6643240
  37.5098848  66.5475512   6.7487997  38.0423093  67.2933435   7.9534978
  80.6551090  78.5773589  64.1043459  80.4824176  79.4500353  64.4576798
  81.5888801  78.5845926  63.8940065  23.8753899  40.4668118  59.6039961
  24.4426449  41.2121846  59.4068251  24.4429262  39.7019841  59.5082329
  77.3306909  50.5236908  60.0179790  77.2830072  51.4065685  60.3847001
  76.8399158  50.5781170  59.1979717  85.8743174  16.2946631  50.1866160
  86.2062032  15.4689242  49.8341451  86.1347992  16.9522835  49.5417009
  79.7500617  15.7275130  66.2381254  79.3851979  15.7194592  65.3532295
  80.2963335  14.9425675  66.2791099   4.3480285  13.7230612  63.9699291
   3.4081753  13.5459305  63.9307646   4.5394333  14.1825463  63.1523298
  28.4619816  11.7375256  60.1984499  27.5684746  11.9634367  59.9399124
  28.8205393  12.5498845  60.5558632  36.6503501  70.9003687   3.2294023
  37.1405888  70.0837564   3.1343400  37.1362495  71.5342331   2.7018124
  29.4483495  59.8655319  35.8624291  28.9765191  59.8413992  35.0299478
  29.2627263  60.7347012  36.2178397   8.4633024  18.7857844  59.7119890
   7.5230773  18.6670185  59.8465322   8.7289198  18.0261685  59.1936622
  72.0581961  21.8534756  13.0329633  72.0744276  21.2874103  12.2612524
  72.2768831  21.2719941  13.7611723  45.1856852  40.6755447  15.5008984
  44.6987486  41.2970209  14.9597049  44.5097065  40.1715517  15.9539711
  52.8321218  69.3017530  13.3876657  53.0454874  68.5486555  12.8367078
  53.0128384  69.0048885  14.2795432   6.6737143  64.2560556  50.0894223
   6.6731182  64.9532940  49.4336115   7.2303310  63.5740998  49.7134648
  65.7070248   9.2849874  11.3446176  65.1599113   9.0195035  10.6054187
  65.7044880   8.5268354  11.9289386  28.2647395  58.4198952  15.3002238
  27.3509145  58.1699181  15.1635945  28.7661457  57.6486063  15.0357568
  19.1580303  79.2344264  46.2149286  19.1931780  79.4459065  47.1478081
  19.8059233  78.5388596  46.1024427  15.4484559  45.6590176  24.0655065
  16.3875104  45.6727457  23.8805270  15.3129006  46.3880348  24.6708083
  61.6635895  48.0744457  13.6037505  61.1264563  47.8375101  14.3597817
  61.8949556  47.2368288  13.2023799  51.1324739   9.7653842  25.9551501
  50.4046059   9.6127039  26.5577483  51.9002724   9.4281417  26.4166594
  21.1266398  48.6054707   3.8561827  21.2061071  47.8609657   3.2598394
  20.5797935  49.2333031   3.3839357  15.3303202   0.8858515  58.4548448
  14.4269522   1.1836935  58.3478247  15.8246859   1.3807751  57.8014813
  53.2912786  11.6536881  43.0894075  53.7575205  11.5657498  42.2580777
  52.4537809  12.0525338  42.8532849  54.9723625  69.9227762   0.6397772
  55.6714153  69.6983910   1.2539482  54.2040014  69.4580364   0.9712515
  55.4137953  21.7822148  55.8270584  55.1425703  22.6059033  55.4218279
  54.6984823  21.5619017  56.4237390  68.0627408  42.1341411  30.5572162
  68.6252466  41.3970065  30.7948147  68.4431305  42.4744169  29.7474323
  44.5347460   0.6336190  64.5964520  44.0603359   0.5896880  63.7662487
  45.4346617   0.3980900  64.3708186   7.5111595  67.1688392  44.3742095
   6.6709295  66.7122128  44.4158564   8.1024328  66.6309478  44.9008022
  22.3854931   9.5809676  52.7530108  22.6881178  10.1809288  53.4346948
  22.5822981   8.7094237  53.0963860  26.9786119  71.1243582  34.4075632
  26.4876437  70.3320646  34.1897249  27.8755140  70.8199215  34.5458126
  17.0368298  29.8263050  42.0809685  16.3668974  29.5571829  41.4524852
  17.5159224  30.5252339  41.6357742  47.2943258  40.5769014  19.6426439
  48.0045319  41.0042763  20.1213837  47.3108149  39.6701288  19.9487770
  56.3724699  52.0856585  66.4062051  56.7489353  51.2103643  66.3147373
  55.4549303  51.9791784  66.1551793  35.4042538  16.3216092  59.8809682
  35.3411730  17.1434332  60.3676449  35.4807241  15.6482150  60.5569313
   6.9175236  30.9374761  10.5717063   6.9101660  31.1745404  11.4990568
   7.8459208  30.8970307  10.3421950  77.0216227  43.9918518   8.5468602
  76.8953037  43.5365820   7.7143902  76.1636066  43.9598417   8.9699590
  39.3669677  67.3850060  19.5735383  39.9236989  68.1573296  19.4745302
  38.4767962  67.7347803  19.6120501   7.7579077  10.4432322  63.8140170
   8.0677660   9.7554518  64.4032328   8.0988510  11.2539030  64.1919093
  16.0377705  36.3808775  30.1724052  15.2845836  36.7696190  30.6171751
  16.7792380  36.5696430  30.7475805  77.5945344  60.1862576  61.3340603
  77.3345247  60.8691099  61.9523983  78.5456291  60.2720132  61.2685178
  52.7155939  66.7230322  49.6577774  52.8047028  66.0136011  49.0213834
  53.5230103  66.6875293  50.1706611  25.0427063   7.2101427  67.7756278
  24.6356257   7.9051806  67.2584788  24.4213255   6.4834000  67.7313460
  39.7960544  59.5261526  12.8683984  39.5051241  58.6321306  13.0481791
  40.6630659  59.4216347  12.4764812   0.1753045  45.1391888   1.3082913
   0.0779248  46.0692310   1.5126763   0.6211949  45.1254749   0.4614021
  73.5854435  17.0520508   6.3945001  73.4228086  17.5872433   7.1712571
  73.1086016  17.4962878   5.6934255  59.0553999   6.6713953  14.5635056
  58.4411383   7.2711831  14.9867892  59.9050665   7.1055436  14.6397257
  74.7939601  81.9138696  65.8722104  75.5808225  81.8903472  66.4167504
  74.1622081  81.3681295  66.3405003  51.7509079  14.4958663   5.1322401
  51.8015909  15.4421628   5.2670914  50.9067488  14.3601382   4.7018853
  61.4830351  72.7510166  17.2599733  62.3677206  72.6487350  16.9091201
  61.5517950  72.4638796  18.1704998  54.3403482  48.7099266  15.2592063
  53.5789490  49.0746546  15.7102919  55.0709581  49.2620516  15.5377650
  49.4112635  32.2525358  16.5865123  48.6884260  31.6495752  16.7602241
  49.8703289  31.8673825  15.8400881  37.1255755  59.7039938   9.8255539
  36.5642023  59.8681259   9.0678251  37.9369593  60.1719713   9.6283573
   7.9859224  78.1924584  34.6128307   8.7934509  77.8715207  35.0142418
   8.2342258  79.0224435  34.2057668  72.7974987  66.5197659   4.5207879
  72.6654005  67.4640608   4.4365552  71.9144249  66.1512470   4.4961563
  14.0517489  79.6081164  58.1810461  13.3353773  80.0014880  57.6827453
  14.7082392  79.3849423  57.5211643  79.9360195  77.2575357  44.0291081
  79.8914924  77.0726540  43.0909882  79.1926351  76.7837622  44.4021402
  28.3181953  50.5929041  11.5315115  28.6214709  51.0324669  10.7371294
  27.6799011  51.1970615  11.9107294  41.4594563  39.0364005  68.5654847
  40.5537088  38.7388874  68.4798416  41.4107092  39.9863125  68.4581026
  41.7549801  66.1787653  27.4310732  41.6842699  65.4390574  26.8277001
  42.6832819  66.4117479  27.4166298  74.6619932  34.4175958  36.6147852
  74.9379198  34.2455815  37.5150657  74.1423361  35.2193784  36.6725922
   9.1501468  75.8455133   1.4624354   9.0984339  75.6479502   2.3975961
   9.9652421  75.4338646   1.1753861  78.1739569  36.3339353  24.4718838
  78.3546734  36.1064887  23.5598302  79.0261173  36.2828517  24.9048400
   7.1138280  17.2341680  11.1991501   7.8033154  17.4602746  11.8234229
   7.5424712  17.2736119  10.3442001  11.6322367   3.2221364   3.5050556
  11.1132186   3.7810468   2.9267305  12.5404208   3.4106969   3.2686630
  53.7739182  56.7285776   0.9911383  53.1491613  57.4123955   1.2326126
  54.5009375  56.8413019   1.6034853  23.0838013  58.9369249  14.4245982
  23.4454942  59.2662525  13.6018240  22.1800017  59.2520761  14.4320750
  67.9230841   5.7292344  52.9408584  67.6858671   4.8347403  53.1854676
  68.7948473   5.8566739  53.3150600  23.9254618  41.7803335  33.0564260
  23.4575510  42.5273752  33.4295487  23.8268018  41.0861731  33.7080669
  63.3982515  72.8097868  15.0929523  62.9060984  72.2513914  14.4911122
  64.3122625  72.6951694  14.8327959  13.1672915   4.5325686  57.0031880
  13.8378294   4.2800738  56.3684772  13.6608179   4.8460366  57.7610789
  30.1768263   4.5743252  69.8669854  29.9539574   3.6853959  70.1433288
  30.8872755   4.8361613  70.4525917  67.3442140  76.0649183  67.7102546
  67.4219337  75.1404550  67.9459654  67.0496717  76.0559466  66.7995427
  33.6860371  36.3036871  11.4270008  33.5279918  36.5021086  10.5040264
  34.0577006  35.4216027  11.4221215  80.9034839  55.2666201  62.5498156
  81.4286437  54.6631172  63.0753849  80.0715747  55.3310611  63.0188619
  55.9265041  55.2725935   3.5815781  56.2183571  55.3114891   2.6707867
  55.0680113  55.6959009   3.5762787  16.0987480  32.6187588  30.9454714
  16.5345295  32.9781653  30.1727138  16.6898354  31.9331576  31.2566076
  62.6160860  19.4327307  36.6577411  63.5456514  19.4339836  36.8860793
  62.1740294  19.1406322  37.4549198  12.7432525  48.1944704   2.4602483
  12.4474943  49.0434933   2.1317430  12.0200956  47.5978184   2.2671601
  15.5364378  38.1481053  67.3392324  15.4755123  37.1933056  67.3095123
  14.7152288  38.4526373  66.9530825  20.1937254  27.2428585  61.2829243
  20.8419760  26.6988923  60.8355962  20.6421478  27.5511433  62.0703940
  35.6438851  31.6770244  14.0797734  35.3673387  31.5392756  13.1738043
  35.3516626  32.5646424  14.2870724  34.3951917  73.1377935  31.0368299
  35.0133204  72.6924038  30.4573703  33.7106538  73.4631252  30.4521966
  45.6955338  50.4370356   6.7262280  45.3881741  49.9204016   7.4711096
  45.4724979  51.3399315   6.9526476  11.8848794  21.2311410  22.7810454
  12.5446170  21.0494184  23.4503388  12.3739665  21.6413640  22.0677805
  28.2295568   7.2280003  38.3355556  27.5707491   7.6705767  38.8706504
  29.0392311   7.7092959  38.5058890  85.9432609  15.9850527  62.8806482
  85.1688416  16.4427306  62.5534825  85.8978660  16.0869051  63.8313304
  51.2984276  26.9933558  12.7104747  51.5775871  27.0817280  13.6217892
  52.0561028  27.2776270  12.1992445  28.9499958  32.5435330  39.5288430
  28.5416992  32.6185490  40.3913389  28.4803255  31.8263413  39.1030751
  39.8837328  23.6763930  19.0100443  40.2556181  22.8144550  18.8229752
  38.9436483  23.5180879  19.0961361  76.0932508  82.0237424  40.4813968
  76.0225692  81.0803153  40.3358398  77.0351282  82.1911409  40.5141126
  15.9660590  44.0707159  19.6386135  15.5695224  43.2318497  19.8737526
  15.2230728  44.6359682  19.4272125  35.1948364  18.7836243  56.9153832
  34.4385298  19.0167214  57.4538086  34.9117430  18.0109431  56.4264522
  52.3022213  56.9327881  64.3682669  52.5130144  57.5745275  63.6900578
  51.4643422  57.2277036  64.7249429   3.5288041  32.9389714  18.3120883
   2.9492371  32.8226041  19.0649450   2.9649584  33.3034371  17.6298356
  57.2823954  67.2242498  17.2192907  56.6089439  66.6768408  17.6230645
  57.2668076  66.9797230  16.2939823  73.3052500  36.0144783  50.2747284
  72.4735029  36.1712290  50.7217799  73.1723173  36.3618924  49.3927632
   1.9570048  15.9857203  62.9228042   2.1241577  16.9238736  62.8324447
   1.0358913  15.9299590  63.1771152  56.7881865  11.0283305  63.7107037
  57.0796135  11.5087105  62.9357599  57.3229028  11.3771750  64.4238774
  57.7402020  58.1834078  48.9905310  57.4780464  58.7790394  49.6924782
  58.6651945  58.3801270  48.8424540  84.1110499   9.9834134  64.8890959
  83.3191879   9.5102955  65.1447193  83.8913591  10.3802802  64.0462045
  57.7830219  40.0059175   0.4669061  58.0086279  39.5403743   1.2722656
  57.9404259  39.3689656  -0.2300504  82.1880546  73.8481190  56.8383859
  81.4693036  73.2725122  57.0997523  81.9766441  74.6918394  57.2379814
  71.8711853  50.5468893  11.3084710  72.6288128  50.3578520  11.8620980
  72.0030022  50.0065088  10.5294669  62.9847670  17.4807537  19.6832275
  63.6899042  16.8567419  19.5111060  63.3806419  18.3383155  19.5279849
  57.2138405  54.5542717  27.7630138  56.9963503  54.4554043  28.6899209
  56.5747452  55.1858854  27.4330854  27.1672869  56.2967157  21.2543917
  27.1697974  55.3481817  21.1259007  26.6989827  56.4254427  22.0792270
  41.9782734  38.3537245  12.9833710  42.7641869  38.4549189  12.4463999
  41.4259958  39.0973854  12.7421486  44.7887810  14.2674805  53.7376629
  43.9971931  13.8867308  54.1179918  44.5285757  15.1513077  53.4781037
  56.9829559  39.7256398  23.7367773  57.9260063  39.8894668  23.7438583
  56.7199373  39.8006320  24.6540689  49.4227123  55.5689859   5.7316315
  49.5080757  55.5511951   4.7784114  49.9368143  56.3290834   6.0039961
  84.2309315  26.9991566  49.5251022  84.8805482  27.4491621  48.9849912
  83.3995302  27.4141671  49.2953835  57.5579071   0.2811084  13.7680781
  56.7949390  -0.2910981  13.8499212  57.2635031   0.9930703  13.2000387
  64.1157579  48.4998465  16.1078262  63.9390516  48.8797235  16.9684649
  64.0117598  47.5570154  16.2362468  55.6197691  29.1776156   2.0737679
  56.0591984  29.5696259   1.3191438  54.9061251  29.7825503   2.2762594
   7.5603214  73.2303407  61.8329583   8.3969704  72.9233076  62.1822159
   7.2089163  73.7988999  62.5181495  27.9729271  52.1449089   7.2764707
  27.1390629  51.6851711   7.3741621  27.9944134  52.4091768   6.3567251
  80.4750443  28.5306692  22.4817681  79.5367384  28.3931303  22.3518133
  80.5276203  29.1558504  23.2046914  64.2951670  69.9931695  59.0734492
  63.4275427  70.0136044  58.6696635  64.1805044  69.4608476  59.8606692
  11.1726482  47.5355698  68.7757744  11.5889414  46.7539097  68.4125481
  10.7315715  47.9409005  68.0291830  21.9162281   7.1652628  58.2057725
  21.2567385   7.5260045  57.6131771  21.9038733   7.7508284  58.9628647
  46.8990231   4.9165809  26.3539410  47.6584482   5.3274131  26.7671227
  46.5032816   4.3909091  27.0491314  54.2656889  78.2624819  53.1640111
  53.7721649  78.9663675  52.7430461  53.6337963  77.5495889  53.2574163
  22.8041768  77.1953058  35.3034401  23.1704402  76.3605642  35.0114012
  23.5508251  77.6695871  35.6692410  44.2635584  34.4710326   8.4563506
  45.0079918  34.8399329   8.9317065  44.3998957  34.7436523   7.5489795
  30.5132604  67.4712944  10.5595040  31.0134292  66.6938925  10.3110945
  31.0856962  67.9405642  11.1664104  50.5523062  47.6191902  16.2615740
  51.1940241  48.3067608  16.0835922  50.5715513  47.5140238  17.2127843
   6.0120671  21.8075322  15.6070936   6.6162055  21.6682862  14.8778045
   5.2651160  22.2607946  15.2161455   2.0772839  61.4586926  30.0634217
   2.9415131  61.0784531  30.2207756   2.1671391  61.9210148  29.2301059
  71.1250401  32.2819567  41.5670490  71.0788393  33.1662393  41.2035370
  71.9266558  32.2796106  42.0901537  53.2950544  10.3188741   0.0128568
  52.5951338   9.9984378   0.5817743  54.0569162  10.3910530   0.5878245
  82.3879616   4.9882363  15.7906199  81.7280142   4.3383931  16.0322905
  83.0483763   4.9270200  16.4807916  38.5917544  60.1622486   5.2692407
  38.4396505  59.2882442   4.9097717  39.4846582  60.1280117   5.6124336
   1.5257271  13.7917782  68.0738874   0.7337363  14.0226866  68.5593401
   1.6432031  14.5097138  67.4517949  43.8543129  54.2218065  25.3536487
  44.7285080  54.3824530  24.9983978  43.3920527  53.7613678  24.6532607
  29.9765110  14.9314427   4.9527389  29.0600562  14.7308946   5.1428020
  30.1534557  15.7328618   5.4453337   1.9247786  59.1541185  66.4024724
   2.3390642  59.3315937  67.2469239   2.6500097  58.9144769  65.8255462
  45.2027845  45.4306936  19.7078097  46.1173964  45.5892324  19.9414396
  45.1809025  44.5136070  19.4344890   5.9506417  63.9249611   8.5111719
   6.6103936  64.5838308   8.7276012   5.6782818  63.5715437   9.3580198
  51.5537882  51.0035610   7.2835356  50.9559584  50.2775860   7.1052355
  51.0538673  51.7871761   7.0549339  79.5625925  47.6117277  12.7294672
  79.7665215  48.4493446  12.3134863  78.6143923  47.5216675  12.6344168
  82.3422391   2.3069073  59.0174638  81.6062720   2.3024680  59.6294795
  83.1175501   2.2390725  59.5747088  28.4372814   2.3371102  52.9340373
  27.7550896   2.6419617  52.3357807  28.2701118   2.8104140  53.7490629
  66.3055506  52.5879576  60.7581781  67.1339217  52.1644261  60.9832398
  65.8344355  51.9336643  60.2422498   4.6495159  13.3251454  38.4446965
   4.8095711  13.1782795  39.3769227   3.8286574  13.8167406  38.4171520
  71.0424900  61.7533207  20.7874846  71.5983057  61.2722826  21.4005971
  70.7177973  62.4986792  21.2927055  83.4166343  30.7539584  52.6598929
  84.3137700  31.0176970  52.8644000  83.4271033  29.7989966  52.7244602
  41.2860346  80.8394432  16.5010130  42.0465517  80.2603340  16.4512217
  41.1080551  80.9210396  17.4379754  18.0102880  74.3902636   5.1810217
  17.9896696  75.2193517   5.6589538  17.0896299  74.1473074   5.0830734
  48.5294008  59.2738295   4.7935185  48.8915777  58.6031818   4.2144769
  48.6815023  60.0976372   4.3304467   8.1250158  59.9280085  32.6701675
   8.0102459  60.8779194  32.6971637   8.0633465  59.7056069  31.7412077
  57.6861532  26.3610007  63.1843661  57.5438364  25.4660536  63.4926633
  58.6345537  26.4282299  63.0736886  57.5575066  11.9252086  17.6187491
  56.9119406  12.6318741  17.6286495  57.0626688  11.1452115  17.8696930
  54.0840681  13.6671187  35.0147901  54.8106344  14.1961838  34.6855102
  53.4187944  13.7203576  34.3286334  34.7946525  34.5687675   7.7459300
  34.2067313  35.2480817   7.4156076  35.6395435  35.0085616   7.8406513
  17.1965178  24.8579384  63.1011771  16.6648968  24.1491724  62.7388780
  16.7004688  25.1657082  63.8597564  84.3050208  50.7409766  61.4699350
  83.8664356  51.2828221  62.1258925  83.6519828  50.6247368  60.7798169
  50.7110357  50.8630896  13.9515519  50.6592846  51.5972662  13.3395517
  49.8001385  50.6066704  14.0955770  82.7043915  67.1809816  14.1581833
  83.0499649  66.5209961  13.5571539  82.5639439  67.9534435  13.6106408
   4.6026627  73.7323239  61.2951098   3.8235107  74.2634871  61.1307143
   5.3269783  74.3578603  61.2778948  82.7850282  27.1351099   5.4524291
  82.2695401  27.1326995   4.6458945  82.3568495  26.4874554   6.0122854
  45.0826168  64.9075508   1.3954931  45.1106596  64.3387699   2.1648648
  45.3628302  64.3463898   0.6724384  61.0230350  42.7233315  18.4020114
  61.7244577  43.1111050  18.9253378  60.4981136  42.2304583  19.0326977
  68.9543915  35.1597643   2.4485455  68.6320591  35.4701328   3.2947159
  69.8667908  35.4477143   2.4195494  20.0305422  13.2947279  68.6249824
  19.2296703  12.8126837  68.8310730  19.7529848  14.2093398  68.5732350
  29.9742436  49.3176937  29.7206831  29.8163486  50.2583647  29.8009300
  30.2770948  49.0507698  30.5885911  62.4316978  37.8451443  12.9316425
  62.8038645  38.4455681  13.5775638  62.0552015  37.1360159  13.4528148
  75.7347980  79.8425987  55.9443115  76.4260068  79.1805627  55.9314047
  75.8381143  80.2802946  56.7892848  13.3412839  69.9413347  49.9665880
  13.2425213  70.0886488  50.9072161  12.9418374  70.7105732  49.5604467
  52.5816631  56.1502934  32.9213142  52.7673960  57.0873880  32.8614092
  51.7697620  56.0350037  32.4275994  57.0177984  46.1078596  19.1319036
  56.7068100  46.0174561  18.2311559  57.4951839  45.2960539  19.3030834
  28.9245319  51.1927557  14.5216632  29.7737050  50.8658934  14.8188150
  28.9003944  50.9827375  13.5880995  58.0147409  66.3104963  43.8182449
  58.1724310  67.1300411  44.2869759  57.1128798  66.3829851  43.5057926
  81.0915089  37.2689962  14.7063279  81.0242367  36.9209313  13.8171959
  81.5348339  38.1107926  14.6011007   6.9373696  25.7874345   6.0027367
   6.2015860  26.3995122   5.9877872   7.1130555  25.6467866   6.9331050
  30.8907803  19.5639922  47.5903259  31.4858730  18.9242531  47.9812537
  30.8541306  19.3226839  46.6647683  71.3305132   7.6589154  23.6746049
  72.1798841   7.4494313  24.0630841  70.7020370   7.5184106  24.3827820
  82.8693104  63.2058620   6.5605664  83.5746479  63.8526154   6.5815765
  82.6609707  63.1087828   5.6313729  33.7856436  77.8364229  48.2417965
  34.0007019  78.0213213  47.3275805  33.8362026  78.6876583  48.6766243
  54.3036938  44.3352365  15.8962953  53.9760685  43.4582853  15.6966877
  53.5978413  44.9221134  15.6250322  33.7588652  41.2391735  45.6423102
  33.5006531  41.1252572  44.7276626  34.1793831  42.0986916  45.6672059
  76.8423986  44.3964672  11.4182711  75.9884071  44.5423269  11.0112584
  76.8114328  44.9048567  12.2287107  71.5306322   5.7028627   0.9949813
  70.8902208   6.4142751   0.9960330  72.1176474   5.9101056   0.2678673
   6.9465979  52.0139195  66.8949579   7.1146091  51.1016060  66.6589691
   6.8065031  51.9945313  67.8416519  30.5204018  14.1511370  54.2219768
  29.5819624  14.1022898  54.0398119  30.8737047  14.6917607  53.5154818
  10.9071906  25.4388977  52.3856090  11.1692913  25.1674820  51.5059100
  10.9727223  24.6418930  52.9116486  27.9234052  29.6282029   3.8623863
  27.9170537  30.1256776   4.6801329  27.0175695  29.6613503   3.5548267
  37.2799754  60.6490707  12.2491026  37.1642542  60.4953623  11.3114381
  38.1897688  60.4063320  12.4211156  47.0942076  22.9033829  56.1107419
  47.0524748  21.9855572  56.3792227  47.6907595  22.9070784  55.3621803
  39.0644320  32.6147438  57.9853319  38.1624468  32.6575877  57.6678048
  39.4123180  31.8058468  57.6099776  18.7638529  37.7551962  53.1422077
  19.4650896  37.1356465  53.3438478  19.2127331  38.5901619  53.0096494
  58.1323195  76.6741562   6.6169173  58.3451653  75.7661390   6.4014411
  57.4169827  76.9000530   6.0223603  69.8190022  80.3834057   8.7127978
  70.4520798  80.7363224   9.3380117  70.3551102  80.0271893   8.0043262
   0.0974401  14.3970467  70.3430969   0.5641039  13.6483599  70.7144771
  -0.0276033  14.9920489  71.0823996  77.7295732  76.7102003  24.2459035
  78.1280613  77.4943209  24.6235180  78.3887529  76.0261822  24.3635321
  84.4587500  50.9004380  51.3330220  83.7144096  51.2246777  50.8260117
  84.8227627  50.1942326  50.7991658  27.9509687  66.1020660   5.2007049
  28.5648298  66.0223198   4.4706041  27.2109175  65.5477953   4.9530306
  74.3640041  67.5683975  41.1692619  74.9945021  67.0144033  40.7090425
  74.2471218  67.1433735  42.0189238  60.1678801  77.3197556  23.3094215
  60.3917551  77.9957056  22.6697350  59.9495935  77.8055573  24.1047692
  69.2501736  63.5348988  22.2265577  68.9796829  64.1089916  22.9431343
  68.4313011  63.1745911  21.8861747  47.5700903  33.6796117   8.9178473
  47.1961403  34.3895411   9.4397628  47.7145243  34.0673256   8.0546856
  67.3309278  62.7132463  14.3770778  66.9036913  63.4337568  14.8402882
  66.6288710  62.0832014  14.2146242  56.5037394  57.4287558  43.2747269
  57.1393442  57.0610619  42.6606894  56.9274473  57.3564339  44.1299868
  68.4551377  27.8966547  67.7867220  69.1005690  28.2389904  67.1682919
  68.1402988  27.0886065  67.3815499  46.7341423  54.0171337   3.9045870
  45.9887934  53.6503363   3.4290421  47.3520517  54.2739296   3.2201317
  41.9585331  22.4812581  56.7058574  42.3399361  23.1749178  57.2439979
  41.1811169  22.8808524  56.3157473  10.7844146  25.6981112  67.2609614
  10.3666003  26.1588742  67.9885326  10.0756796  25.5443503  66.6362350
  -0.2676599   9.4207884  44.3131696   0.4507216   8.8756825  43.9921985
   0.0787457   9.8314024  45.1054011  39.3975639  74.7564459   9.2542785
  39.8036575  75.5009460   8.8103950  39.6630836  73.9956474   8.7376374
  75.5800343  38.6426830   3.9181194  76.0412025  39.3996143   4.2795232
  75.6861973  38.7275147   2.9706150  68.6994362  57.0549107  52.6069164
  68.8716078  56.1143112  52.5637722  67.7852726  57.1436787  52.3373747
  25.7415080  71.4099216  29.9226928  25.9923959  72.3242092  30.0544786
  26.5651155  70.9604740  29.7332168  26.1655211  50.9443378  16.0603750
  26.5023732  51.7832851  15.7458365  25.7186365  50.5665064  15.3028989
  47.9610825  67.4228907  11.8480742  48.1945324  66.6296816  12.3303080
  47.4381924  67.9337168  12.4660361  82.4797916  32.7145314  23.9283061
  83.1003380  32.0532584  24.2346883  82.4508667  33.3609080  24.6337104
  73.1381083  13.7005436  21.0676336  73.5206747  13.9755404  21.9008493
  73.7573004  14.0094090  20.4062438  64.6898094  39.2885909  58.5013328
  64.6649757  40.0014476  59.1396509  64.0583887  39.5463843  57.8297053
  84.1888714  14.6823490  11.6364181  84.6540165  15.1578796  10.9481251
  84.1123009  15.3123295  12.3530030  63.3874853   3.2909800  56.2716852
  63.2017859   3.7027480  55.4277693  62.5947149   3.4354474  56.7882834
  78.7748495  68.4001353  36.3080583  79.4515291  68.4350207  35.6319533
  79.1495052  68.8797428  37.0468698  46.0001850  16.9109750  12.2041786
  46.7223120  16.9649088  12.8301585  45.4918051  17.7077246  12.3557508
  70.1797867  37.9403281  17.8051507  70.2968454  38.6038804  17.1252763
  70.0044441  38.4416723  18.6014795  55.9650230   0.7608272   4.6441084
  56.4249706   0.6482580   3.8122398  56.4065218   1.4991209   5.0639093
  17.2949806  78.8299634  66.6829915  17.6892487  78.0601146  67.0930131
  17.9424587  79.5243194  66.8049578  79.1628313  56.8887901  31.9150639
  79.5008755  57.4886322  31.2501216  79.2168903  57.3829126  32.7330804
  65.9663534  51.6150999  -0.1614852  66.3806677  52.0105171   0.6054727
  65.1978064  52.1612167  -0.3267935  26.0663843  34.1917109  50.6039667
  25.3719187  33.5450602  50.4783106  25.6629014  35.0260711  50.3646421
  39.2055395  45.5591410  62.7955924  38.8595912  44.9768128  62.1192454
  38.8882753  45.1860907  63.6180334  24.2764338  32.7056958  52.5459455
  24.2473372  31.7489363  52.5439285  24.9276503  32.9241063  53.2126175
  58.1233707  78.6664202  65.8572565  58.5397401  78.5807731  64.9996237
  57.3033514  79.1274311  65.6804274  85.6772771  69.1584470  50.3615390
  85.4508319  68.8925674  51.2527524  85.5282798  70.1038887  50.3484903
  35.2206349  42.6133394  26.1469102  36.0373926  43.0438042  25.8942389
  35.1448703  42.7763605  27.0870781   2.2455390  73.1894649   4.8699713
   3.0863317  73.6411584   4.9425927   2.4125155  72.4687434   4.2625904
  48.3959463  48.4419163  69.3916976  47.5657132  48.1245687  69.7469954
  48.7123480  49.0669056  70.0440092  24.1471115  64.9228909  63.9368449
  24.2265144  65.3991678  63.1103538  23.2040993  64.8181751  64.0632932
  65.4510307  41.5255260  15.4249012  65.2872324  41.0919905  16.2624276
  66.1964846  41.0541534  15.0529587  48.5168934  24.7186112  19.8190057
  48.9952850  23.9196301  19.5976353  47.6200533  24.5483494  19.5310557
  10.3156725  42.2949547  70.7837463   9.8794237  41.4979090  71.0848051
  10.9629885  41.9884342  70.1487180  71.2092972  36.1990786   8.7152719
  70.3032970  36.4145470   8.4939778  71.7187262  36.5074253   7.9658484
  63.3894887  78.7140396  30.9678875  62.4796143  78.4296491  31.0544000
  63.6477557  78.9637878  31.8551050  38.8586426   7.8002155   0.4900311
  37.9356170   7.9366809   0.7036500  39.0407348   6.9049186   0.7755455
  62.8821325  55.3503942   6.3793910  63.4122849  55.8819103   5.7855332
  62.0648575  55.2025700   5.9035373  66.8661261  27.5673532  28.6918855
  67.7594709  27.9056454  28.7529111  66.8616390  26.7986298  29.2622185
   1.9885984  54.7537448  67.7740313   1.3838163  54.9844303  67.0688681
   1.4439741  54.3014767  68.4182905  11.6929356  41.9633362  59.7633551
  11.5645424  42.3297260  60.6382869  11.3682619  41.0653307  59.8297308
  49.6855688  23.8707995  14.7132039  49.9624681  24.1442323  13.8386798
  50.1097584  23.0228353  14.8445427  25.6152931  55.7522251  43.0264603
  26.1519352  56.5398922  43.1149326  25.8257977  55.2307453  43.8010441
  76.2588468  70.0339844  62.6838176  75.9656778  69.5190027  61.9321023
  76.0126272  69.5083358  63.4449361  20.3124682  31.1788561  64.5835815
  19.9970213  30.3719892  64.9906342  19.7918240  31.8716153  64.9900840
  31.1324039  58.3148565  29.6520124  32.0342556  58.3357801  29.9720798
  31.0228077  57.4305823  29.3023287  12.1133574   6.3069369  23.9236484
  12.6014002   7.1099020  24.1061149  12.2654923   6.1403395  22.9934154
  69.2325750  28.1258478  58.6773763  68.6661759  27.9887488  57.9180156
  69.4607129  29.0547683  58.6414121  80.5872440  44.6160078  18.9660680
  80.9533119  45.3869772  19.3994689  80.0043678  44.2283916  19.6189356
  67.2126436  41.1382771  11.5762734  68.0611897  40.7358646  11.7613757
  67.3782301  42.0797634  11.6254115  23.8923740  35.5955553   6.8594867
  24.5839667  35.5961800   7.5212491  23.8652563  36.4976478   6.5405375
  76.4655733  81.6764736  12.3198307  76.2552834  80.7461071  12.2396505
  77.0596886  81.8515015  11.5900195  31.3962555  52.5467682   1.9253080
  32.2081733  52.9520941   1.6207862  30.7655835  52.7192211   1.2262037
  32.6381882  28.7958647  52.0813547  32.7700861  28.7320877  53.0272756
  33.4458931  28.4485127  51.7029427  11.8289677  78.2233860  29.1327415
  12.7032248  77.8434684  29.0457331  11.2385431  77.4700167  29.1246401
   5.9005983  14.7736288  68.2686959   6.5991886  14.5139767  68.8693504
   6.2023409  14.4799019  67.4090983  62.9595151  73.9866569  68.0250163
  63.7465372  74.4237783  68.3502139  62.2357288  74.4608166  68.4343325
  27.0938786   8.4266879  70.0057746  27.1797522   7.4754120  70.0685025
  26.3055571   8.6297299  70.5093132  64.5217371  23.6356187  10.3695011
  65.2527571  24.2362809  10.2244258  63.7423372  24.1880751  10.3098345
  61.5497160  14.4698119   2.0026088  61.1127853  14.3760312   1.1561279
  60.9419155  14.0791512   2.6304585  26.9309711  18.2723272   0.5381615
  27.2951794  18.3123243   1.4224604  27.6334143  18.5972035  -0.0250984
  79.7818327  68.9814997   1.9525044  79.9782801  69.8804140   2.2163163
  79.0446901  69.0650702   1.3476363  49.7345495  61.7959309  11.5258467
  50.3198242  61.5904427  10.7968330  48.9019632  61.3886976  11.2866879
  25.9412876  50.6603273  65.2553044  25.1130024  51.1396398  65.2344303
  26.5868107  51.3096776  65.5343662   4.9484635  58.3878279  10.2743316
   5.2644444  58.5118723  11.1693192   4.4073392  57.5994921  10.3184795
  34.1236694  26.8662526  56.6324972  35.0632151  26.9965912  56.5040432
  33.9569958  25.9833838  56.3023542  41.7165709  32.9476357   8.5917544
  42.4971867  33.4726405   8.4149879  42.0213366  32.2552824   9.1782665
  15.9637558  42.9044628  12.7859485  15.2383804  42.2834969  12.8527653
  16.7238533  42.3628902  12.5733876  39.6404179  13.2365586  69.4939671
  39.8205908  14.1516901  69.7091371  39.9792822  12.7436186  70.2412371
  83.7465301  71.3061526  32.8173695  84.1295019  70.7181265  32.1663795
  83.9291492  72.1844890  32.4835931  72.6450586  24.1560197  28.6631846
  72.2053671  23.8932014  29.4717813  72.1440172  23.7289023  27.9683757
  85.9202352  77.2303107  69.4662617  85.7720771  76.4898565  68.8780361
  86.1589971  76.8285467  70.3016119  59.8109198  54.5871925  11.6527510
  60.6259060  54.9777222  11.9682074  59.9999523  53.6504841  11.5972662
  21.4705046   6.1358143  61.6641121  21.5832289   5.2760102  62.0694081
  22.3565395   6.4037444  61.4204107  70.9890619  66.1547901  42.4659668
  70.9991136  65.5044319  41.7637096  70.2075115  66.6802075  42.2946583
  28.3242853   4.0535809  55.3011189  29.0558584   4.6498372  55.1414107
  27.9293831   4.3711211  56.1131869  24.7825924  70.9224608  42.1095167
  25.3337685  70.1788547  41.8656216  24.8989121  71.5507533  41.3968097
  15.8810079  32.8747177  19.0633762  16.4907670  32.1398568  18.9970016
  15.0295031  32.5005865  18.8371038  34.0831430  77.3827241  20.1797938
  33.4035500  76.8119148  20.5383515  33.6006363  78.0904571  19.7525573
  54.7668552  35.6105638  10.6883025  55.6388140  35.4803777  10.3155160
  54.7268200  34.9987149  11.4233327  82.7204514  71.7254829   9.1532791
  82.8743458  72.5551367   8.7013716  83.5758877  71.4838839   9.5083612
  57.5769003   9.6827103  52.5482093  57.3500784   9.9438120  53.4407388
  57.3716887   8.7484480  52.5125037  30.1548973  42.0247599  56.2084339
  30.1309315  42.4718171  57.0544825  29.6190182  41.2419350  56.3359307
  14.6588293  76.7434742  48.0325065  14.2353884  77.1976569  47.3040520
  13.9965931  76.7295649  48.7235056  50.3386641  24.5415545   6.1092275
  49.4780827  24.5048523   5.6917584  50.6595325  23.6403418   6.0761851
   4.1849931   0.7204701  43.3568083   4.8863800   0.0926424  43.1832443
   4.5207174   1.5527369  43.0238639   5.3499189  61.7803004  67.7196319
   6.2442127  61.5665414  67.4535872   4.9463573  62.1448495  66.9319294
  55.5143929  20.8549500  15.5118454  56.2484884  21.4274740  15.7344437
  55.3770971  20.9948277  14.5749271  56.7369890   2.8732726   6.5691757
  55.8397818   3.1676093   6.4122695  57.0972824   3.5174942   7.1786016
   4.7183386  57.5690808  39.6617685   4.8795239  58.4608128  39.9700962
   4.1976181  57.6810982  38.8664494  10.0079599  67.5793698  47.9208790
  10.4765049  68.3799794  47.6848160  10.3720013  67.3304608  48.7704383
  47.7107676  20.1791693  52.2273432  48.2370337  19.3873192  52.1166740
  47.5560673  20.4905249  51.3355146   6.1423365  73.3826306  70.1089042
   6.3594929  73.7165096  69.2385016   5.8690468  74.1567852  70.6010752
  85.3196194  47.1986818  52.1853256  84.6098980  47.7957058  52.4221659
  85.0729498  46.8633795  51.3233757  14.3806362  74.9901342  29.8750019
  13.9946461  74.7318745  30.7119846  13.9658129  74.4147873  29.2322540
  12.0439196  54.8891020  42.4635935  11.0903895  54.9717236  42.4499464
  12.3346460  55.3384399  41.6699934   7.0276779  46.2458038  24.4484353
   7.5300890  47.0584679  24.3902373   6.4343262  46.2767744  23.6979628
  26.1595797  71.1551764  57.2039126  25.7089749  71.9972565  57.1399699
  26.0391873  70.8876850  58.1150590   4.1432178  54.6288824  33.7900019
   4.6947998  55.1526356  33.2089067   4.4396952  53.7288618  33.6547446
  25.8141518  53.9298296  29.2410040  25.9866667  53.4793139  30.0677514
  26.6598463  54.3010092  28.9894938  72.8584205  48.7278414  31.7973852
  72.6909601  49.6685791  31.7408347  72.0754372  48.3223677  31.4248800
  38.4375344   0.2387475  16.3711619  38.8089202   0.9573316  15.8593619
  37.4964098   0.2864026  16.2030983   5.8599168  54.4676208  23.7458801
   6.6523302  54.2062378  23.2768464   5.6353569  55.3226423  23.3788037
  12.9365695  35.2985048  60.5033541  12.0501614  34.9479914  60.5908251
  13.2906187  35.2791095  61.3924551  13.8149762  52.5660658  31.3042545
  13.0659711  53.1370878  31.1335063  14.1309178  52.3190975  30.4351044
  63.1231903  70.9741783  26.6792798  62.2552108  71.2946939  26.4340973
  63.4505534  71.6224241  27.3028541  73.7390851  45.5915260  50.8116484
  74.1556286  46.3668633  51.1879063  73.6707079  44.9776936  51.5429258
  27.2908235  62.5239754  47.4778748  27.8731322  62.7695656  48.1967831
  27.4062467  63.2176781  46.8285036  11.9426608  37.9324174  26.0944223
  12.6418376  38.1788969  26.6999221  12.3463428  37.9853129  25.2281237
  11.7395000  10.5752133  33.8129783  11.2888937  10.2674340  34.5993996
  11.7128090  11.5297078  33.8797212  70.5190269   5.8660745  37.1743345
  69.8465244   5.7628297  36.5010476  70.8162252   4.9742459  37.3547482
   8.8592583  74.5228338  17.0837653   9.0033698  74.7155046  16.1572981
   9.2195362  75.2803802  17.5448060   6.9429295   3.5428857  40.0327539
   7.7051465   3.3566045  39.4845200   7.2967784   4.0284204  40.7779217
  42.9208545  20.3064012  35.1733661  43.7075870  20.7071065  34.8036146
  43.2504909  19.6935796  35.8306479  42.9632263  25.2860307  23.5098481
  42.6523678  25.1216363  24.4001150  43.8797800  25.5394315  23.6191559
  26.9497528   4.6658372  16.8364656  26.1609734   4.1988706  16.5607858
  26.6235436   5.4734181  17.2335005  29.9642944  56.5177250  14.9756503
  30.4525304  56.1256886  15.6996417  30.2142167  56.0001802  14.2101991
  35.0614802  14.3815946  61.4223099  35.8435081  13.8914537  61.1684799
  35.0750254  14.3753003  62.3793936  50.1919879  44.3676831  65.8024751
  50.4989357  44.7329213  66.6323022  50.1856298  45.1121689  65.2008705
  77.5348639  61.5924835  22.1478844  78.3134078  62.0430803  22.4750900
  77.3652720  61.9951582  21.2962222  70.5467045  78.9155388  65.8383369
  70.5442130  77.9628658  65.9312677  70.4366731  79.0648746  64.8992825
  83.3413633  63.6364365  36.2144876  83.2341799  63.3298969  37.1149206
  82.6624548  64.3023920  36.1057758   2.1106140   5.0383424  17.8547359
   1.3834612   4.5461701  17.4736261   2.6321666   4.3790864  18.3125556
   2.0387912  68.6703968  57.4145222   1.8377966  69.1047955  56.5855837
   1.7143910  69.2717409  58.0848789  31.5220428  51.4494705  70.2508974
  30.9458447  50.8308506  69.8019743  31.1751771  51.4966440  71.1417913
  53.6069607  63.9403677  55.7854414  54.0369701  64.3122625  56.5555191
  53.2139515  64.6931028  55.3436661  21.6548729  54.0953493  49.3500566
  21.0368276  53.9543438  50.0672531  21.2095475  54.7107267  48.7676239
  47.3589563  67.2008133  40.9660578  48.0295371  67.8746128  41.0780859
  46.7398071  67.5804234  40.3425360  28.9618182  74.4162512  67.4577188
  29.8591995  74.6203518  67.1944952  28.4164596  74.9692059  66.8982029
  12.3771453  33.1438923  19.8283887  12.6758409  32.2627330  19.6035075
  13.1336713  33.5533905  20.2481627  74.6542358  32.1027279  21.1268902
  75.2746772  31.6707730  20.5397773  73.8224840  31.6570401  20.9663129
  84.1961601  41.2597895  54.5594597  84.8972606  41.9110489  54.5829487
  84.6204447  40.4416752  54.8181248  13.1968894  75.0140741  59.1648351
  13.1630948  74.2878582  59.7874902  14.0753022  75.3794172  59.2704199
  19.6885645  79.3405533  32.6088953  20.2618289  79.3182755  31.8426657
  19.5625389  80.2726078  32.7867103  77.7282223  29.7369073  10.8235802
  77.2984179  29.3586037  11.5906490  78.0558189  30.5839322  11.1260094
   5.6367677  74.0042067  15.3137410   6.0998636  73.6698008  16.0818207
   6.0765350  73.5915041  14.5704269  33.1729746  71.1729479  43.9838171
  32.8899026  71.4003563  43.0981636  33.2693243  72.0152664  44.4281626
  11.2365615  35.8594227  21.8034053  10.5742419  35.6025553  22.4449515
  10.9614992  35.4334712  20.9915328   5.5802220  39.5526099  27.4633026
   6.3603562  39.0747833  27.7449155   5.8526838  40.4701328  27.4512291
  53.8701009  60.4747343   6.2149739  54.0402746  61.2660456   6.7259550
  52.9708838  60.5792189   5.9039724  68.3060272  18.0177666  70.4818828
  68.9744110  17.8001095  71.1315915  67.6214350  17.3618485  70.6135511
  82.7552804  43.4558270   6.5122236  82.4356994  43.3541939   5.6156887
  83.4147271  44.1472218   6.4544977  13.4895253  77.0435905  13.2474768
  13.5319269  77.9908848  13.3781230  14.3856359  76.7411327  13.3949065
  30.8101702  80.6240845  41.0186768  29.8871517  80.5301189  41.2541342
  30.9597874  79.9452734  40.3606033  18.0219722  76.7202234  21.7899466
  18.1268370  77.4068737  21.1313510  18.6334944  76.9605732  22.4860096
  36.3584042  71.4975691  42.1537733  36.4532042  71.2501097  41.2339830
  36.1524391  72.4320555  42.1303892  13.8897030  20.1623963  47.9680586
  14.1010217  19.8291921  47.0959616  13.1461207  19.6315526  48.2535839
  28.3573484  62.1868706  36.6075397  28.8128471  62.8269482  36.0606813
  28.3779001  62.5651026  37.4866009  21.3603044  61.7864609  58.0256081
  21.0647964  61.0507822  57.4892473  20.7685709  61.7872429  58.7779903
   9.7146529  75.1346684  14.3414557   9.8217416  74.4429588  13.6885369
   9.9418604  75.9400082  13.8766634  59.8983376   8.5622930  28.6408973
  60.4854528   9.1064500  28.1160951  60.1505224   7.6637410  28.4281898
  12.6166403  52.6589537   9.8168248  11.9015920  52.1980667  10.2555966
  12.5460804  53.5615921  10.1274645  34.5719848  29.6191930  15.9172976
  34.7724937  30.2781247  15.2525914  35.3554670  29.5865964  16.4662278
  48.0118863   0.2852964  39.2481828  48.9427845   0.3656053  39.4560575
  47.6585965  -0.2710963  39.9423313  83.2184278  67.0659781  34.0722132
  84.1147109  67.3931360  33.9955640  82.8994595  67.0278025  33.1705284
  15.3658561  70.0027345   8.9905752  15.6184630  69.1154049   8.7354912
  14.4351892  70.0584744   8.7738146  79.8341076   5.3569459  11.8578076
  80.6265680   5.6538724  12.3051023  79.2909281   6.1418675  11.7865419
  21.6549516  48.5680294  46.4374399  22.2309422  48.3879852  47.1804428
  21.7006183  49.5173264  46.3235092  71.0848562  23.2634782  30.8830428
  70.6573431  22.4673890  30.5672789  71.3258068  23.0633115  31.7875361
   7.6367927  77.6401281  21.5910816   7.0992434  76.8940496  21.3253045
   7.4475449  78.3157253  20.9399366  15.5688930  55.8581018  18.2967651
  16.0217893  56.6065693  18.6852396  15.1330471  56.2167692  17.5236988
  23.8622628   4.5243310  44.9786329  23.8168160   5.2860021  44.4006872
  24.7374289   4.1650247  44.8329735  51.8038623   0.5805253  49.3291569
  51.7764608   1.4840745  49.0143776  52.0206444   0.6570767  50.2583408
  21.2759662  76.2667894  22.9859662  20.6535459  75.5425119  23.0511737
  20.8267641  77.0062208  23.3954620  70.3029072  70.4088545  44.2214298
  69.5152711  70.0490141  43.8135386  70.8604836  69.6469355  44.3789768
  78.5294234  76.8730164   3.6007309  78.2902419  77.0480919   4.5108813
  77.8798448  77.3519182   3.0860138  73.8710927  55.6692791  27.9641986
  74.3309390  56.4726496  28.2078481  74.5427834  54.9883080  28.0008769
  20.7033491  39.1861439  12.9055774  21.3979149  39.6883130  12.4793863
  21.1657691  38.5082030  13.3983183   1.0466471  79.7718334  45.2889252
   1.8787968  80.0915813  45.6375265   0.3886921  80.3556633  45.6663752
  11.7396359  18.7689065  58.9688778  11.8356006  19.6761273  59.2586613
  11.1550431  18.3718251  59.6144819  37.8181128  12.9196977  53.1544876
  37.1014236  12.4710893  53.6031961  37.7512298  12.6281404  52.2452307
   8.0010301  73.2880592  19.4309402   7.9907596  73.6328840  18.5380685
   7.1504349  72.8609800  19.5325541  58.7912790   0.0238751  17.3272002
  59.7470657   0.0758885  17.3272824  58.5135571   0.7205628  16.7324436
  52.5897471  32.6282071  50.3936958  51.9023554  32.0191239  50.6633997
  52.4895088  33.3776425  50.9806585  25.6853212  16.3046407  18.1266701
  25.1243846  15.5290555  18.1337941  26.3950889  16.0924768  18.7328434
  31.8869543  74.5518970  17.7320218  32.0331740  75.1851892  17.0293188
  32.6486611  73.9733744  17.6953959  85.7990641  50.4270029  13.5123563
  86.1821460  50.6610680  14.3577516  86.1159623  49.5397568  13.3432257
  13.3588982  76.8978834  40.6952620  13.2187307  75.9771538  40.9162569
  13.5805488  76.8896437  39.7641158  75.2397036  39.3307090  20.9899116
  75.6879126  39.9928069  21.5161848  75.4526305  38.5009050  21.4169049
  30.1172853  60.4032564  15.9181094  30.8994746  60.0468683  15.4969239
  29.4633770  59.7091436  15.8353734  72.6896762  31.0275984  19.3489218
  72.5258791  31.9547296  19.1762137  72.6982927  30.6204724  18.4826624
  20.8840227  28.1607699  53.0041170  20.3407598  28.6813569  52.4124336
  20.5884314  27.2601938  52.8706264  67.1502804  33.1070757  14.1171420
  67.4872231  33.1659317  13.2231414  66.2022161  33.1987882  14.0223050
  19.1856670  34.7342992  16.5463340  19.0796340  34.7272849  17.4976170
  18.2938468  34.8076391  16.2064683  84.4459055  47.8619099  19.1838646
  84.2537075  48.6401320  18.6607373  84.8925305  48.1995153  19.9602544
   9.5990676  28.4461999  12.3244524   9.2314309  29.1398215  12.8721428
   9.9285823  28.9019322  11.5498817  73.9640891  29.3311667   9.7326708
  74.1483759  28.7226844  10.4482269  73.0635106  29.6165037   9.8868531
  26.5754938  41.4585686  27.4860811  25.9447455  40.7440519  27.3974323
  26.0514975  42.2063684  27.7732253  30.8759482  26.1290337  65.6879131
  31.4636261  26.5058590  66.3427915  31.0089071  26.6682030  64.9082671
  74.9581527  62.3452139  35.9068155  74.2471980  61.7507458  35.6672716
  74.8404395  63.1026554  35.3335285   8.8138503   9.2422438   3.7579995
   7.9800707   9.6984565   3.6443633   8.6813301   8.6893225   4.5280311
  61.2752055  53.7343550  39.4042897  62.1591615  53.5146618  39.1100311
  61.1228346  53.1598568  40.1546001   5.9119487  21.5696025  18.3237028
   5.2322805  20.9314489  18.5406005   5.7900995  21.7412639  17.3899376
  21.2888646  30.9493327  29.2481923  21.4604759  31.7954850  29.6614814
  21.4774084  31.0931039  28.3208251   9.6649793  67.8959491  38.8863979
   8.8003841  67.8872444  39.2970501   9.9546566  66.9842055  38.9186846
  63.9603042  64.6519470   9.0286094  63.5775446  63.9138317   9.5028633
  64.6677160  64.9597692   9.5952171   2.7444887  47.5021219   3.2366213
   2.8354788  48.3794403   2.8647804   2.4714926  46.9565058   2.4990527
   1.9118717  33.1560230   6.4664465   2.5360835  32.4367571   6.3702708
   1.1803407  32.9159570   5.8977085  52.3923005  23.8466813  62.3809402
  51.8189103  23.6499096  63.1217085  53.0400358  23.1419445  62.3856287
  57.0732971   3.3247210  53.5100268  56.3653382   3.7133242  54.0238498
  57.8531047   3.8174797  53.7656103  68.5245128  25.8594252  65.0861083
  69.2950923  25.8665015  65.6539021  67.8049542  25.6011559  65.6620978
  69.8578131  27.8315997  28.2362223  70.6789052  27.6478767  28.6926079
  70.0511753  28.5962057  27.6938009  26.0025263  41.6726732   7.2898465
  25.9913206  41.6083860   8.2448196  26.8628764  41.3376236   7.0373166
  77.6258867  44.0709925   5.7335550  78.5148781  44.4231892   5.7769710
  77.7424532  43.1583834   5.4693818  46.2869818  46.0071637  58.7933789
  46.9727416  45.4730297  59.1942166  45.6711871  45.3717781  58.4282623
  71.2741179  74.0322883   8.4913683  70.6448109  74.5574934   7.9970360
  71.8775101  74.6729959   8.8677245  61.5400306  17.6003910  58.5188113
  62.2099937  17.1553065  59.0377305  62.0342631  18.1269814  57.8905807
  63.6834247  11.0208632  56.3131510  63.4856869  11.4575650  57.1416567
  62.8675766  11.0713936  55.8150838  17.6333511  34.7131944   4.9692073
  17.1021867  34.7811604   5.7626033  17.0500398  34.9971700   4.2654037
  74.4896335  58.3709408  55.5782543  74.5485015  57.5108887  55.9942900
  74.8878021  58.2479168  54.7165356   4.0428555   7.3669493  31.0437298
   3.7516832   6.9369477  30.2396464   3.8162827   8.2884252  30.9181166
   7.1958270  58.7514915  69.0006809   6.9738999  58.8762739  68.0779622
   7.9279914  58.1350114  68.9896794  70.9012722  22.7502823  27.1575713
  70.4915177  21.8868995  27.1037149  70.3432214  23.3140826  26.6219044
   3.8939196  62.8142834   2.4905832   3.1806472  63.4522676   2.4692602
   3.5000294  62.0037699   2.1678628  83.4288769  58.3205652  19.1962051
  84.1914749  58.7540770  19.5792806  82.6850786  58.8559246  19.4725883
  21.5933204  23.4104776  61.7265320  22.2909784  22.9686069  62.2105312
  21.0039210  23.7411976  62.4043655  10.0484776  30.3746653  10.2237117
   9.8592657  30.6972575   9.3425971  10.9790707  30.5587912  10.3514814
  49.9898459  13.0796505  66.0479291  50.8978660  12.8298689  66.2192164
  49.4796522  12.3051001  66.2845747  85.0044910  40.7514763  32.6849008
  84.9513615  40.7956553  33.6396027  84.1095900  40.5608034  32.4037838
  82.3461420  24.1479517  30.5861030  83.2926209  24.1390349  30.4435287
  81.9718678  24.1965319  29.7064482  19.5660281  51.6288614   5.0717276
  19.4771898  52.2135973   5.8243376  19.4241941  50.7529974   5.4308641
   2.1361676  52.9973698  36.2890220   2.3347813  52.1735620  36.7341375
   1.2627181  52.8658152  35.9202242  57.9952621  40.1034355  54.8407888
  58.3938336  39.8100209  54.0214729  57.1199512  40.3980684  54.5892859
  35.3645134  34.1887236  10.7430768  36.1863732  33.7307167  10.9191740
  35.3626466  34.3214631   9.7951275  32.3341870  68.8776875   6.0329336
  33.1533623  69.3721676   6.0588801  32.3328447  68.3735752   6.8466288
  33.8367343  31.6283298  11.9884980  33.8638473  32.1263409  11.1715019
  33.0843806  31.0450482  11.8885958  50.9016861   8.2760121  56.9112717
  51.6777391   7.7721621  57.1564387  50.4172749   7.6980616  56.3217388
  13.2519829  60.3870392  14.8811090  12.6312125  60.8940792  14.3578649
  14.0590024  60.3917551  14.3663955   7.9243696  54.9571848  17.3990643
   7.5949866  55.7601881  17.8027046   8.4831065  55.2605486  16.6835117
  73.5283589  40.7029533  36.6771960  73.0926823  41.5204096  36.4359832
  74.4436704  40.9495163  36.8100166  62.3156623  32.7273489  67.9538201
  62.3513241  31.8347908  67.6098646  61.5569068  33.1201817  67.5223057
   4.4201466  37.7516150  30.9527683   4.0482903  38.2321882  31.6923642
   4.4088322  36.8361115  31.2319708  22.7446914  49.0981483  30.2024889
  23.2187772  48.5997009  30.8680940  22.6101685  49.9590969  30.5985975
  64.4443051   7.9928254   9.4449580  64.2796390   8.6393975   8.7586188
  64.8145811   7.2412252   8.9821076  39.9595428  77.2262383  50.4795265
  40.4735327  77.6285696  51.1796474  40.6109285  76.8235826  49.9052477
  32.2561407  78.0788758  54.0927301  31.8803522  78.8234618  53.6230455
  33.1786316  78.3078935  54.2058359   9.6150869  18.4880090  37.9895902
   9.3795997  17.5899410  37.7566719  10.5413747  18.5601246  37.7593255
  80.1043820  65.8220673  29.9240732  79.8334067  66.0609007  30.8105063
  80.1668578  66.6567183  29.4596577  38.0778911  80.4311135  67.4272440
  38.4641161  80.9508970  66.7223413  38.8259032  80.0141957  67.8548978
   9.7716594  58.6167526  52.5011396   9.0420455  59.1218042  52.8600597
   9.3643337  57.8265858  52.1462440  28.7299633  59.5058203  30.6734228
  28.5270953  59.0530825  31.4920211  29.5386457  59.0955830  30.3668785
  66.1328315  51.0400677   7.7029866  65.8971571  50.1689243   7.3839366
  65.4793429  51.2339115   8.3750045  30.8462000  77.5889232  69.8391496
  30.9228508  78.4555509  70.2382906  31.2955679  77.6720049  68.9980800
  33.5560405  75.2255680  47.6775060  33.5372093  76.1455181  47.9412638
  33.4598669  74.7395685  48.4965216  77.1064984  36.4597559  36.3318539
  76.8048721  35.5739665  36.1302853  78.0364644  36.4534760  36.1052346
  57.5497293  23.2496309  27.7817154  58.3549213  23.4998798  28.2347870
  57.7128410  23.4693432  26.8644643  14.7055483  40.7610464  39.3634462
  14.9470973  41.6384363  39.0666819  14.2642832  40.9044123  40.2006817
  70.0599682  50.5630827  40.3848171  69.2403292  50.6421804  39.8967934
  70.4168891  49.7159910  40.1178503  72.4564853  52.5837912  69.7054364
  73.1769910  53.1991305  69.8413131  72.8732648  51.8043353  69.3380423
  59.1865777  75.0604343  34.3170118  59.0436291  74.1154957  34.2632771
  59.6489000  75.2791262  33.5078979  81.3302254  22.3988700  59.4257545
  81.8212431  23.1249213  59.8104382  80.4541891  22.7545929  59.2765808
  45.9900753   3.8903474  33.4130740  45.3883855   3.3106183  33.8801098
  45.5040304   4.1634320  32.6349902  24.7260798  29.1078900   6.0979718
  24.9636952  28.1864404   5.9945303  23.9860593  29.0977239   6.7050123
  27.7261938  23.6236714  50.2214861  27.7078098  23.3792066  51.1467600
  28.0041678  22.8273820  49.7688437  30.1104491  13.3216809   2.0240743
  29.4471270  13.3550977   2.7133635  30.8670719  12.9080819   2.4396360
  74.2296965   0.8390261  68.2258059  73.7170465   0.6414057  67.4419908
  73.8159413   1.6207386  68.5918195  12.8030038  44.5041847   4.4539204
  12.0404673  44.0309048   4.7867468  12.4845791  44.9494219   3.6686805
   3.3261654  46.5835667  32.2142172   2.7330810  47.2746229  31.9193864
   3.7198898  46.2464046  31.4095211  84.5705227  56.5552664  33.3369637
  83.6529594  56.3831472  33.5483479  84.8256006  57.2594595  33.9330173
  32.0102484  27.4789311  63.3974884  32.2217090  28.4116007  63.3568923
  32.8600271  27.0392395  63.3696251  64.2690769  80.6034949  70.7686392
  64.7833886  81.3826015  70.5571885  64.6089211  79.9261787  70.1838490
  20.8239055  75.5782270  40.1497126  20.1764393  75.9831476  39.5726037
  20.3711104  75.4821491  40.9875536  43.0461876   6.9589185  55.7877159
  43.0509059   7.8921460  55.5749035  42.2742431   6.6147088  55.3384352
  60.9295488  36.1765171  59.6495508  60.8929829  35.4033877  60.2127252
  60.0160408  36.4453055  59.5521460  85.0461147  59.4334745  21.3134313
  85.6801637  58.7172556  21.3487387  85.5415541  60.2056313  21.5864563
   9.1938525  71.7930269  10.2980459   8.5356545  71.2590408  10.7428658
   9.4345695  72.4606848  10.9403241  69.3942423   7.2872569  63.2602195
  68.5436923   6.9301297  63.5156719  69.1841919   7.9875304  62.6423763
  11.9175637  65.2906513  18.5080016  11.7163599  64.5238495  19.0444350
  12.6106119  64.9948502  17.9177344  40.5170302   7.0258760  35.6139231
  40.3199141   6.9043302  34.6851587  40.6135349   6.1373376  35.9565735
  61.6109418  27.8904414  13.2972741  62.5387239  28.1223202  13.3382726
  61.6025423  26.9952440  12.9584789  62.5045847  55.2848482  23.0131292
  61.5643524  55.1054955  23.0182242  62.8790259  54.6164560  23.5869575
  86.2552316  77.9993967  38.0313540  86.1573560  77.5890715  37.1721172
  86.2209756  77.2700850  38.6503553  21.5177822  42.7813959  30.9752059
  20.8709621  43.3108616  30.5088162  22.1110177  43.4206486  31.3697433
  37.2108337  76.7316916  50.8856605  38.0985614  77.0658209  50.7570945
  37.2087100  75.8817723  50.4453622  15.9792805  32.6943922  44.3812323
  16.4983821  33.3266950  43.8842821  16.6271484  32.1143079  44.7812366
  45.7520122  53.1097866  51.6261898  46.1670894  52.6360012  52.3469327
  45.1442189  53.7126423  52.0544217   5.4255691  66.3204076  42.1388756
   5.6974712  65.4285862  41.9221817   4.4721141  66.2702372  42.2069822
  10.8474127  76.8141105  69.5368469  11.3637415  77.0750072  70.2994561
  11.1663834  77.3737337  68.8288112  32.6137684   7.0726537   3.7037581
  33.2793505   7.5607537   3.2189995  32.5389732   6.2407064   3.2363185
  78.1159037  74.3843317  10.8287835  77.9813694  73.7001419  10.1730275
  77.4391221  74.2225266  11.4860642  65.2075100  49.7967625  21.2096620
  65.5013752  50.5128241  21.7728043  65.5444860  49.0064383  21.6316414
   9.6886683  57.7442455  32.7317023   8.9863521  57.3404217  32.2218871
   9.3658149  58.6232948  32.9298639   7.4844056  42.8450632   4.1041094
   7.0271271  42.0851707   4.4642389   6.8205333  43.5341549   4.0785691
   9.3458229  48.3973646  12.7789855  10.2290678  48.0419111  12.8777862
   9.1964120  48.4083033  11.8335819  10.9788299  49.9486542  16.3389516
  11.4390194  50.2173328  15.5437970  11.6665781  49.6051025  16.9092190
  37.9148839   1.3074159  36.5324330  38.6420242   0.7268857  36.3077354
  38.0325709   1.4888333  37.4648857  32.2063879   5.2435445  31.1795902
  32.9972632   5.5254220  31.6392565  31.9290189   4.4531297  31.6427708
  19.6580637  22.8615713  18.8684130  19.0539289  22.9093623  18.1274891
  20.5280304  22.8977084  18.4708154  60.4308224  67.9862642  10.2371538
  61.3863420  68.0415010  10.2245498  60.2421904  67.0618868  10.0753784
  86.2050274  57.5056219  27.3385239  86.2345937  56.8536186  26.6383433
  85.5069874  58.1061983  27.0772266  85.5192168  49.2796780  63.6744408
  86.0386903  49.7976090  63.0595259  84.6491058  49.2386223  63.2776342
  49.7726917  30.9167314   9.5294154  49.5796394  31.7831159   9.8876685
  49.6126604  31.0049820   8.5898226  29.2977619  41.3052225  19.9487519
  29.9419594  40.6304264  19.7345185  29.8211050  42.0823097  20.1449013
  73.3834230  74.0363550  55.6043863  74.1456103  73.4633064  55.6875563
  73.0884826  73.9131927  54.7021294  23.8624334  72.9100037  15.9005427
  23.1868362  72.3987579  16.3459992  24.6409845  72.3538446  15.9283650
  37.6686502  70.3173256  55.0295067  37.6774502  70.5398321  54.0985680
  37.4481130  71.1381006  55.4698706  79.1328972  30.9321117  28.7309456
  78.9426481  30.0477791  28.4179068  78.5455405  31.0536599  29.4769144
  37.4060297  36.7974567  11.6822135  37.5598884  36.0518861  12.2624600
  37.0100451  36.4141512  10.8995867  15.1632357  62.6390553   7.0195514
  14.5004594  63.2800770   6.7625451  15.4647112  62.9371834   7.8777260
  76.5721519   7.2242428  65.2068375  75.9353931   7.9385544  65.2298914
  77.3490269   7.6089217  64.8009775  63.0636955   4.3864943  65.0605540
  63.1633277   4.4610192  66.0096334  62.2480644   3.8995434  64.9428515
  55.2650117  37.5915454   0.5033697  55.8699157  37.4143002  -0.2169834
  55.0664588  36.7287419   0.8672012  25.8769719   3.4305333  37.3738194
  25.5008562   4.1665124  36.8910122  25.1201479   2.9701184  37.7364016
  33.4060339   0.4491948  26.8789315  33.8037328   0.9110211  26.1408353
  33.5030602   1.0500001  27.6177454  23.3554505   0.4544019   1.3147302
  23.6893855   0.3601979   0.4226289  23.9846693   1.0324525   1.7462091
  25.3465295  40.7471514  15.4914844  26.2410307  41.0791397  15.4147959
  25.2458739  40.1555252  14.7457767  72.7381260  29.0831210  62.3678850
  73.1030042  29.8268916  61.8884061  72.1257169  28.6790205  61.7531554
  37.3898385   5.2541970  32.1531487  38.2496248   4.8392247  32.2224402
  37.3795508   5.9028768  32.8569484  78.5623764  64.7778988  38.5351586
  78.5111302  63.8328362  38.6782289  78.8767158  64.8672390  37.6354694
   9.6320105  65.4454184  12.4584317  10.4260874  65.8684015  12.7851748
   9.9322349  64.9033642  11.7288613  43.6458723   2.7673577   4.3703273
  43.2167367   3.2611417   3.6715800  42.9379456   2.5418138   4.9738193
   1.1708546  14.4338846  33.1382298   0.2207088  14.3183291  33.1281257
   1.2963003  15.3783965  33.2298446  29.3771059   4.7974230  67.0614652
  29.5450742   5.5799748  66.5364571  29.6384652   5.0436427  67.9487641
   9.5043623  11.4200497  37.1574855  10.0399649  12.0782292  37.6003885
  10.0623822  10.6432652  37.1193886  12.2067428  12.8537941  35.3085947
  12.3155046  13.4868145  34.5988846  13.0895424  12.7314234  35.6577682
  12.7210760  50.1310825  19.0290165  12.2885811  49.8103285  19.8204052
  13.2917392  49.4114017  18.7594998  83.8096459  13.9658190  64.3829428
  83.1904847  14.2102696  63.6951087  83.2614882  13.6160208  65.0853644
  47.0973269   2.8263139  16.6686702  46.5893929   3.5450696  16.2923348
  46.4547734   2.3055409  17.1504915  75.1845443  70.6937838   2.3620081
  74.9586820  70.7237148   1.4323187  75.6375992  71.5210390   2.5251734
   3.4357035  62.1133709  58.2461023   2.7236104  62.1542311  57.6077557
   3.5316768  61.1806297  58.4384871  37.3838559  67.3698571  67.2911830
  37.7348271  66.6191699  66.8121011  37.9928562  67.4955752  68.0188815
  61.2314210  39.1025235  60.5567025  61.9724316  38.6888625  60.9994404
  60.4732005  38.8739993  61.0943900   3.1461832  73.3689260  12.8405893
   3.8085806  73.7375164  12.2561228   2.6760030  74.1303921  13.1801903
  41.0784478  28.2088162  61.6352777  41.7924387  27.7010847  62.0208399
  40.7485611  27.6575877  60.9256624  65.0052142  74.0831423  20.6125569
  65.9617924  74.0525055  20.5967712  64.7746610  74.7174692  19.9338043
  64.3348853   1.2841367  40.0997734  64.3721644   1.8323850  40.8835268
  65.1617448   0.8019494  40.1052284   8.2727039  48.8298416  28.8258576
   8.0688238  48.1006670  28.2402253   8.9870131  49.2946005  28.3899784
  16.5413129  25.0201750  49.7005415  16.1533797  25.0463939  48.8258648
  17.2656322  25.6446433  49.6601200   4.5627609  42.8280973  42.6697588
   4.4766799  41.8830061  42.7947569   3.9737123  43.2103586  43.3202410
  24.4777159  17.9258012  61.5811348  24.5159720  18.6599683  62.1941376
  25.0805698  18.1688260  60.8784676  36.7834091  75.8993530  23.0548072
  36.9906044  76.2974787  23.9002657  36.9419217  76.5953302  22.4170589
  25.9191568  30.0450684  68.8700358  26.0418327  29.7399403  69.7689683
  25.5608042  29.2878939  68.4068914   9.1809446  26.2808871  25.4283786
   8.4535825  26.8131280  25.1060486   9.8032320  26.9156194  25.7834911
  79.4621312  45.7944584  16.7725229  78.5752051  45.4576826  16.6453421
  79.7472607  45.4110765  17.6019490  66.2171292  54.9905491  37.4752498
  65.9559583  55.0415277  36.5557814  67.1364652  54.7253132  37.4487495
   1.3932922  52.8179407  18.8832605   0.5467211  53.2628536  18.9233088
   2.0300451  53.4931755  19.1174400  39.8222606  62.0213221  14.2539658
  39.1169266  61.7449497  14.8390736  39.9383358  61.2845300  13.6540474
   2.5960860  59.6973562  47.9626799   2.4827525  60.5376911  47.5185823
   1.8727234  59.6576023  48.5882998  12.4779165  29.0089655  17.5785875
  11.9293189  28.5006118  18.1759548  12.4095213  28.5499787  16.7413986
  86.0335447  43.9205933  39.2566252  86.2825663  43.0085087  39.4060254
  85.0813796  43.9280033  39.3543935  84.8596842  14.8683001  68.4859612
  85.4343684  14.5523430  69.1831981  85.4384167  15.3592040  67.9025943
   8.8465929  37.9157233  69.6834517   8.5909706  37.6071811  70.5527592
   9.5999074  38.4842992  69.8430443  83.2983191  16.6157652  28.4873710
  82.4184043  16.5927197  28.8634716  83.2126577  16.1609198  27.6495109
  10.4956162  73.5084486  12.0542419  10.5154800  74.3525791  11.6033709
  11.4156377  73.2549810  12.1287119  79.7692346  54.0646601  39.0010548
  79.7611296  54.6685553  38.2584381  79.7965270  53.1949377  38.6022210
  71.1775541  43.2235003   7.6264471  71.3907909  42.8246927   8.4700775
  71.8353414  43.9095163   7.5127274  11.3028872  20.6553006  14.7634852
  10.8337104  20.2174926  15.4737163  10.6145585  21.0589242  14.2347860
  80.7279914  32.8458142  31.9974828  79.7831243  32.7187657  32.0830178
  81.0347229  32.9735088  32.8951693  22.7010489  76.9084311  38.5483313
  22.2590876  76.4630747  37.8254485  22.2813129  76.5617847  39.3356633
  43.5128402  78.8889694  12.5753033  43.3621740  78.9801121  11.6344404
  43.2376861  77.9944944  12.7763867  53.1274949  18.0426098  62.0619903
  53.6166249  18.8550164  62.1923004  52.5122924  18.0132796  62.7947228
  52.5893600  26.9751860  54.9930166  52.8988371  26.4087511  54.2861865
  52.7203060  26.4589669  55.7883809  18.0113959  66.1214209   4.7752151
  17.6369500  66.9597960   4.5047653  18.4144390  65.7716370   3.9805833
  19.8280203  11.9255900  33.3475685  19.8792708  12.6655877  32.7425814
  19.2519259  11.2983978  32.9105592  37.9380250  42.3585892   0.9596787
  38.5868239  42.2315788   0.2674653  37.1060944  42.4478436   0.4947490
  65.7211399  60.9312582   8.6069632  66.2644625  61.4266253   9.2198592
  65.4294825  61.5803814   7.9668015  59.9287843  57.7918053  20.5368328
  59.8774885  57.2655487  21.3347411  59.5203709  57.2470951  19.8639882
  86.0927647  60.4548931  47.0912504  86.6173693  60.8297586  46.3837910
  85.5544641  61.1828852  47.4018908  77.7069552  11.5025975  68.4204882
  76.8367643  11.4962174  68.0217908  77.8671367  10.5899311  68.6605109
   7.2890842  40.4943085   9.9828774   7.5046247  41.1699057  10.6257975
   7.1450180  40.9760380   9.1683739  28.3721995  36.5028882  26.0246968
  28.3223939  35.8444738  26.7176914  29.0933275  37.0743299  26.2886238
  23.7659381   2.7037858  22.3702288  23.8006906   1.9211148  22.9201889
  24.2594810   2.4668836  21.5850353  28.4261417  60.5894995  23.2341909
  29.1588926  61.1836195  23.3964539  27.9727769  60.9684372  22.4811339
  19.3047762  70.9191561  27.4433541  20.1143312  70.8424520  26.9384098
  19.3742204  70.2379417  28.1122017  10.7455842  40.6043958  29.5877600
  11.6482298  40.3753137  29.3664408  10.7336978  41.5615129  29.5844698
  40.1169507   3.2547521  23.7061119  40.2886395   3.8520192  24.4341445
  39.6259944   2.5330781  24.0990305  57.2128935  27.3324706  66.3111929
  58.0641558  27.5002266  66.7154722  57.2248926  27.8481413  65.5048607
  34.1124392  71.2991142  67.0271444  33.6937523  70.8489275  66.2934780
  34.9546170  70.8561516  67.1308279  70.9245538  50.7423210  27.3391700
  71.8738436  50.6945944  27.4523163  70.7925522  50.6780195  26.3932967
  11.6775215  41.1773968  56.4886856  11.8544328  40.7251549  55.6638145
  12.5203991  41.5547037  56.7405319  37.9164450  25.6172990  35.1707578
  37.6489143  26.0837316  35.9626555  38.2448689  26.3024949  34.5886230
  58.0267238  20.1418997  61.7595754  58.8201559  19.7590281  61.3852648
  57.7253540  19.4937493  62.3962150  45.3553486  58.7322330   8.5356814
  45.1163149  58.1105518   7.8482187  44.5501232  58.8545227   9.0385628
  78.3449738  27.3005723  40.0225592  78.4531586  27.0154904  39.1152263
  78.5165922  26.5153741  40.5424070  65.4785521   8.7393595  53.7454615
  64.9960185   8.3969952  54.4979106  65.2631314   9.6718193  53.7268995
  49.7865438  56.1748552  11.7535794  50.1071072  56.8690777  11.1777985
  48.8816309  56.4212465  11.9450212  43.7532155  15.5882405   3.7440473
  43.6454491  16.3080644   4.3657115  42.8605716  15.2977418   3.5568887
  11.9235563  42.7915096  13.4895241  11.1131728  43.1631231  13.8379669
  12.3914611  42.4716759  14.2608893   4.1303703  34.9333739  50.4935360
   3.8616726  34.3196511  51.1771870   3.3095735  35.2209878  50.0937843
   2.7283184  14.7796582   2.3992078   2.2070996  14.4119214   1.6855371
   3.6311333  14.5495271   2.1796732  48.7892723  71.3361549  19.1121626
  48.8881254  71.9534969  19.8369730  47.8831816  71.4476919  18.8244367
  30.4133852  55.5765606  62.9237650  31.2602766  56.0111596  63.0243806
  30.6332930  54.6650292  62.7314381  40.9386873  73.9396763  14.5488572
  40.8641148  73.2861471  15.2442491  40.6570673  73.4806108  13.7575412
  54.6033255  52.4116875  55.2872597  54.5120604  53.3054902  55.6174432
  53.8699401  51.9361664  55.6774519  17.4022190  17.9165219  10.7140338
  18.2019715  17.5371598  11.0783291  17.6404004  18.8189458  10.5015612
  67.0884085  69.9520874  21.6167283  67.0202303  69.4817495  20.7858443
  66.2766552  70.4560804  21.6739655  75.9627580  80.6107807   3.2425112
  75.2824532  79.9502707   3.3734563  75.8680200  80.8739758   2.3270959
  39.8098354   3.0079888  26.8374586  39.1740684   2.9642247  27.5516844
  39.7970693   2.1321630  26.4514446  83.9131219  35.0547482  67.4910562
  84.3087537  35.0427319  66.6195278  83.3469112  34.2831494  67.5077151
  49.9935770  68.0647802   2.5776935  49.1680288  67.6530933   2.3223166
  49.8898840  68.2506943   3.5109213  41.8560505  35.1036382  19.4649839
  41.8423367  35.0822425  20.4218459  42.5700521  34.5140600  19.2224371
  70.1407234   5.0210713  19.8697901  70.1875488   4.6273755  18.9985597
  69.2190926   5.2562665  19.9771237  29.5069122  77.1834373  43.2778072
  29.2953634  77.1498537  44.2107296  30.4562259  77.0658207  43.2430935
   5.2891486   5.1062345  38.3243155   5.7139056   5.9639978  38.3316946
   5.8203881   4.5708226  38.9136791  24.5865035  77.3252344  18.2673001
  24.0046501  76.8708801  17.6580048  24.1430926  77.2631264  19.1133273
  85.3323508  64.8853064  58.6939955  86.2138491  65.1134920  58.3988285
  84.9949353  64.3032837  58.0130863  61.2832205  20.9708642  31.2277246
  61.7444150  21.6492127  31.7210627  61.9575588  20.5769395  30.6742620
  14.4250524  55.3441381  33.9729047  13.6672115  55.5436993  34.5225239
  14.2909288  54.4363928  33.7004352   1.4204234  49.1265392  44.5890713
   1.3165480  48.6787605  45.4286766   1.0173173  48.5370111  43.9517355
  43.3053736  10.3730535  27.1305799  42.8901271  11.0510587  26.5975475
  43.1763641  10.6652974  28.0329013  75.8997559  65.5986500  39.6183944
  76.1974966  64.9503851  40.2566195  76.6933119  65.8532190  39.1475439
  25.9988594  66.2408590  45.7342720  26.4221120  65.5289936  45.2543402
  26.5184832  66.3335133  46.5327978  24.0037370  68.8954163   8.9406973
  23.8478279  68.5291243   9.8111892  24.9213338  69.1674614   8.9561456
  33.8328968   3.4340238  22.9483652  33.3563082   2.6481008  23.2156014
  34.1682701   3.2258462  22.0763445  68.1329770  22.2880055  61.3391624
  68.2712431  21.4312769  61.7430513  67.6789136  22.7984120  62.0096438
  49.8200910   0.9912347  28.4790182  50.1728575   1.8415784  28.2169247
  49.6491234   1.0815000  29.4164920   6.2481409  53.4879541   7.7317286
   6.7285341  54.1711998   7.2641474   6.8306422  52.7286816   7.7110314
   9.8280102  72.2447586  21.1544847   9.1023666  72.2692966  20.5307293
   9.6251321  72.9355860  21.7852259   5.8245428  40.3016259  52.7607380
   5.7900222  40.7537152  53.6037396   5.6357582  40.9830834  52.1155928
  42.5891263  25.9031130  69.1170810  42.8274603  25.5934740  68.2432668
  42.7371783  25.1486041  69.6871939  41.2742138  74.6560812  18.5440695
  40.5489159  74.9435759  19.0986145  41.3595057  73.7204552  18.7272573
  23.6818457  56.2553024  25.6540251  23.7774777  57.1098566  26.0745335
  22.7628160  56.2204313  25.3886938  40.4922819  52.8513050  12.9946470
  39.7845793  53.4569597  12.7742565  41.1960411  53.4131670  13.3190954
  25.1096518   5.5901670  12.2509158  24.7097049   5.3666638  11.4104855
  26.0489143   5.6197309  12.0688629  76.8325178   7.1766805  18.4519589
  76.0278313   7.0509671  17.9490554  76.9085209   8.1259202  18.5489273
  68.8095999  66.5967894   9.4679606  69.0119362  65.6612825   9.4787389
  69.6622467  67.0254183   9.3937856  58.4575908  17.0026826   9.9046373
  58.1718080  16.1938523  10.3293169  58.2459037  17.6916455  10.5345201
  22.5103305  16.3649510  63.7024164  21.7097305  15.9882497  64.0676165
  22.2458814  17.2287225  63.3858871  41.2070608  79.6215677  30.6748748
  40.4432774  80.1867676  30.7907224  40.9144783  78.9459467  30.0631857
  39.5306659  59.0655708  26.3445687  39.6451974  59.8585224  26.8683481
  39.7077584  58.3486176  26.9535398  30.6038651  10.2142762  20.1700258
  31.4917658  10.0799703  19.8386276  30.2365918  10.8923673  19.6029878
   2.0827381   4.7603559  32.2805023   1.3999097   4.4417810  32.8708291
   2.3679749   3.9819573  31.8019986  79.5971381  78.2329750   8.5023636
  79.1270124  78.8660669   7.9597694  78.9075052  77.7273893   8.9325035
   2.6052463  44.2568588  33.3343625   3.0919573  44.5631886  34.0995455
   2.6912734  44.9652815  32.6964211  17.2500932  48.4055853   1.0980807
  16.8449509  48.6302090   0.2604435  16.5520930  48.5265398   1.7418186
  49.4604818  26.3983296  53.0191088  49.7419850  25.4892301  52.9165411
  50.2412860  26.8573522  53.3287430  48.1018571  14.3376969  21.7809200
  47.3726801  13.7641381  21.5452051  48.7403039  14.2144250  21.0784817
  63.1511439  15.5339219  60.0787602  62.4615009  14.8850800  60.2188538
  63.6038763  15.5877806  60.9204040  21.9384718  78.7747622  10.8155549
  21.1955619  79.3220282  11.0701466  22.4132895  78.6204767  11.6322410
  36.2370348  77.7542400  64.3452311  36.0758853  77.7571821  63.4016991
  36.1401916  76.8371916  64.6018934  75.1290607  41.3339186  40.5547094
  75.1954936  41.6660070  41.4499950  75.5857610  41.9857550  40.0229549
  19.4238019  55.8233118  22.4987698  19.5951688  55.6047153  21.5827560
  18.7533212  55.1975965  22.7729392   7.0069379  65.1645517  53.3267736
   7.6918817  64.6649694  52.8823614   6.3457817  64.5119047  53.5573244
  21.1528230  53.3214903  42.2859573  21.3212538  52.3843861  42.1874809
  21.7429423  53.7381935  41.6579866  13.1352448  66.6948080  59.4275570
  13.7385452  66.6333055  58.6869621  12.2671270  66.5875483  59.0388441
  76.0895295   6.3437439  69.3188058  76.9962556   6.2201716  69.0380750
  76.1387856   6.3914753  70.2735450  11.5666664  74.6704865  47.6771879
  10.9423280  74.8511934  46.9744968  12.0783520  75.4756069  47.7558661
   0.8963265  71.9849682  35.3730297   1.2668654  71.5601683  36.1466408
   0.2630772  72.6111889  35.7238507  65.3291393  62.9988076  67.2912829
  65.1393808  62.3921086  66.5756367  64.8564322  62.6391293  68.0418925
  28.9918494  76.8567085  45.9102297  29.6076488  76.7677450  46.6376257
  28.6923432  75.9637642  45.7393980  72.4056808   5.0988435   7.5865370
  72.7532665   4.3208932   8.0226654  71.9695656   5.5892991   8.2833052
  81.9565637  39.5134999  51.6633104  82.7969296  39.7300888  51.2594460
  81.9892318  38.5653426  51.7904626  72.4076796  74.7053289  30.6394053
  72.9107618  74.8160124  31.4461827  71.6332054  74.2100668  30.9061217
  23.8060236  64.7788715  25.8886003  23.7111831  65.6569719  26.2576270
  24.6885014  64.7688580  25.5179739  19.3360615  68.5728693  32.8338933
  18.8780200  67.8314161  33.2297134  19.8719585  68.9292669  33.5424328
   6.9800250   9.4857358  16.1073601   7.2319619  10.3918599  15.9293044
   7.7999966   8.9946031  16.0557473  23.1386971  62.3195648  26.8837285
  22.2836494  62.2421694  27.3069715  23.2393456  63.2566977  26.7167497
  49.6923208  77.7411604  16.9801402  48.9566994  77.3364830  16.5204346
  49.4884157  77.6242781  17.9080367  25.1770043  35.9233475  42.5772238
  25.9504366  36.4853311  42.5302553  25.3044224  35.2816391  41.8785095
  36.9507933  57.3365450  28.7705421  37.8091693  56.9507217  28.5957217
  36.7443013  57.0659828  29.6651888  11.8158770  57.1777534  20.9603691
  11.7755115  58.1340885  20.9553313  11.0582519  56.9087839  21.4798808
  11.9565781  15.4160859  57.4229084  12.2285564  15.8131005  56.5954779
  12.3606070  14.5483567  57.4164401  80.0703334  72.6831961  20.8276677
  79.5961820  73.1640053  21.5060759  80.9938764  72.8433895  21.0216784
  47.4822957  36.5073372  68.9265802  47.5183518  37.1842505  68.2507701
  46.6416437  36.0720421  68.7849632  76.7352795  69.3682003  16.5424836
  76.5650343  69.9589491  17.2761488  75.9080469  69.3386793  16.0618091
  43.4752989  64.9423265  16.5182519  42.5522852  64.6897221  16.5400445
  43.6860180  64.9995422  15.5862892  78.9955860  54.5921469   9.8592585
  78.9773070  53.6760139   9.5825011  78.2609152  54.6733236  10.4674530
  81.2488037  54.9716949  21.2723136  80.4602360  55.4637384  21.5009856
  80.9339403  54.2603445  20.7145786  31.2391138  56.5248299  32.9184985
  31.2631178  55.7924414  33.5343432  31.6952085  56.2000084  32.1421599
  39.8229269  58.8429116   3.1036696  40.6157534  58.3939027   2.8103301
  40.0019567  59.7704648   2.9493096  55.3937332   1.2285089  48.4713173
  56.0100023   1.4456510  49.1708088  55.0822870   0.3503465  48.6905575
  63.1858541  48.9675213  58.1114422  63.4051914  48.2693077  57.4944948
  63.1089599  49.7518135  57.5681125  26.4535633  28.6454820  22.7862358
  26.6477094  28.3368444  21.9012046  26.3504170  29.5924710  22.6924038
  16.8827176  41.0023689  26.8160319  17.8220093  41.1845875  26.7884898
  16.5412605  41.3819551  26.0063720  46.0367648  35.6322145  10.2776217
  46.1154048  36.4410161   9.7717762  46.0359208  35.9198331  11.1905885
  47.4519796   6.3520838  56.4596020  47.2391159   5.4275061  56.3328181
  48.3683414   6.4256407  56.1929522  10.1164007  81.0170555   2.7842826
  10.3049362  80.7676029   1.8795954  10.9055400  80.7749367   3.2689139
  55.9683363   5.1381253  22.7196646  55.7052152   4.4371652  22.1232963
  55.3433291   5.8432244  22.5510764  45.7258181   5.2151155  40.8393049
  46.6695563   5.0970410  40.9472322  45.5303590   4.8185300  39.9903345
  25.6246519  70.1856852  38.1830359  25.0081515  70.8942699  38.3676100
  25.3172231  69.8094893  37.3582959  69.2588424  71.4206886  19.1299736
  68.7380933  70.6274557  19.0041625  70.1207423  71.1998701  18.7769878
  85.4935191  67.4158573  30.6341910  85.7192168  68.2981110  30.9290028
  85.1113901  67.5438786  29.7659612  41.0298252  59.6203852  35.8901930
  41.3957930  58.9154816  35.3559566  40.1058197  59.3909073  35.9891462
  30.4662156  60.3619146  40.3679848  30.1305366  60.1593351  41.2412024
  29.6895742  60.3689241  39.8085117  26.2074995  55.1572037  15.9525490
  26.6005874  54.9749470  16.8060696  25.2641487  55.1265049  16.1118484
  19.5836079  15.6182086  21.8665552  19.4557118  16.5636098  21.7885232
  20.1294470  15.5138779  22.6459193  39.6898174  70.9598446  10.4794204
  38.8206887  70.6191874  10.6910717  39.5219731  71.6939163   9.8884863
  23.9290313  17.0214128  38.4022903  22.9884289  17.1627950  38.5095787
  24.3297104  17.5311898  39.1064334  19.0902114  39.0042782  43.1491280
  18.9347923  38.7563133  42.2377586  18.5638022  38.3878398  43.6581755
  49.6920673   2.9320382  38.9328742  50.3878705   3.5738229  39.0750337
  48.8832097   3.4129380  39.1081452  32.8436041  49.4190264  22.4794412
  33.4464526  49.1855812  23.1853533  32.5427723  48.5786867  22.1336746
  53.6406660  70.1404715  30.4698515  54.2227507  69.3889952  30.5825496
  54.2255497  70.8981895  30.4671431  18.6345410  66.8722010  22.2641087
  18.3323586  67.7637959  22.0909810  18.0501318  66.3168049  21.7481327
   1.9305100  61.5978289  35.9418392   2.8370827  61.6133213  36.2486267
   1.5781935  62.4517965  36.1925292  16.5893686  59.2180347  12.6040578
  17.4330699  59.3785048  12.1813881  16.7276919  59.4682312  13.5175669
   9.6565521  39.1527629   1.2411763   9.3321460  40.0513840   1.3000706
   9.1342950  38.7547469   0.5447117  65.1575391   0.2986287  21.9226885
  66.0767858   0.0383805  21.8636680  65.1841847   1.2024259  22.2368097
  83.0187797  75.3109932  14.2420983  83.6822190  75.3173065  13.5521412
  82.7063462  76.2148762  14.2822313  32.7650309  82.0808601  14.2222607
  31.9889307  81.5371609  14.3574941  33.1995916  81.6932583  13.4625554
   2.7704533  21.1717440  69.5425597   3.3595236  21.3859297  70.2659908
   2.6193603  22.0075776  69.1012196  78.6580723  78.8239431  11.6296661
  79.1762620  78.0860758  11.3083267  78.9507949  78.9469719  12.5326657
  73.7934112  71.4332914  14.0447402  74.4318389  70.8584356  13.6226225
  74.3147504  71.9782925  14.6341562  20.0194049  49.0740108  29.4788146
  20.9157062  48.9841413  29.8025417  19.6165061  49.7153187  30.0641584
  40.5507565  79.6832895  41.2865686  40.1725388  79.4729185  40.4327965
  41.4590120  79.9170685  41.0951424  16.1965168  41.9317818   2.2844857
  15.7034647  41.3315964   2.8438711  17.1133721  41.7036819   2.4380396
  33.8316083  61.8840408   9.9932319  34.4535494  62.4002409  10.5060267
  33.8586259  62.2749281   9.1198999  81.8580880  41.0696745  29.3143845
  80.9710961  41.2608099  29.6192527  82.0248019  41.7248011  28.6367059
   2.6147969  42.1453644  63.7099688   3.2602270  42.8045918  63.4548585
   1.8158873  42.4014355  63.2490949  17.4906819   5.3217839   8.9320737
  17.5502627   4.5437287   8.3777112  17.6047700   4.9905061   9.8228437
  38.1849697  43.9552390  60.7130192  37.4847707  43.4032985  60.3647171
  38.7414714  44.1417854  59.9568854  48.9973108   4.6679353  30.6749511
  48.8645951   4.5514344  29.7341824  49.9468176   4.7338914  30.7765293
  72.7023355   2.6106690  69.5182037  72.7815716   2.7057408  70.4673672
  72.5354902   3.4984731  69.2016649  80.0023335  53.3558464  44.4708872
  79.4868290  53.5971737  43.7013102  80.2670699  54.1922522  44.8537397
  41.0331345  61.9790745  21.5859103  40.7815838  62.4722862  20.8050799
  41.9894886  61.9531918  21.5550709  75.9899937  51.5897751  44.8785162
  76.5778636  51.6209936  44.1237545  76.1356580  52.4210882  45.3301048
  13.4200757   5.9222459  10.4154289  13.9314597   6.3898706   9.7550899
  13.7760346   6.2232541  11.2514412  37.2718573  81.5291309   6.0060906
  38.1070256  81.0965347   6.1838078  36.6165447  80.8408070   6.1201364
  23.9931099  22.1224069  32.3351455  24.9262555  21.9120931  32.3703289
  23.7171851  21.8422460  31.4624429  84.1480629  15.5390595  17.7187622
  83.3938257  15.0311421  18.0177343  84.7935955  14.8806237  17.4618793
   2.9719632  22.2417687  20.3752899   2.6667826  21.3732289  20.6374693
   3.7973063  22.3578118  20.8460021  55.8957577  42.6227379   8.2166469
  55.4692698  43.3184624   7.7163374  56.1420012  43.0383968   9.0429807
  46.8772745  78.9811993  46.2811470  47.7707720  79.3206882  46.3325214
  46.9716930  78.0376434  46.4116049   6.9030945  21.8986177  10.2490246
   6.1650269  21.5202951   9.7711515   6.5700762  22.7311372  10.5840421
   7.4345534  20.1258134  13.6605084   7.7383702  19.4349431  14.2492545
   6.5584319  19.8461865  13.3950865  45.7883005  16.7442941  23.0240655
  46.6705458  16.5192746  23.3194399  45.6083660  17.5918054  23.4309697
  44.3497999  34.4248845  61.5571944  45.2914103  34.2545630  61.5329687
  44.1896542  34.7601057  62.4393593  40.1088182  12.0229863  27.8796458
  39.4997994  12.4260568  28.4984040  39.9219124  11.0858773  27.9356074
  60.5641780  50.1182438  52.1903919  60.8291669  50.4290940  51.3247214
  59.7685463  49.6109749  52.0295261  54.1514934  25.8320977  63.3248882
  55.0647153  25.5562188  63.2464759  53.6459712  25.0702597  63.0415563
  24.8617816  79.5067406  52.2717285  25.1475430  80.3619385  52.5929832
  25.6676483  78.9945745  52.2046661  33.8706703  11.1784314  36.0233760
  33.9080082  12.1127080  36.2282300  33.0364041  10.8859204  36.3903499
  22.6188271  29.1581487  45.0390911  21.7103182  29.0048169  45.2985811
  23.1379215  28.7345361  45.7227039  71.1093337  46.2048985  63.2488839
  71.2943323  47.1427227  63.1989191  71.3736017  45.8628060  62.3948543
  10.2717710  74.2596483  31.5423822   9.8441494  75.0785351  31.7929697
   9.7490859  73.9304972  30.8111548   1.4285812  70.0186300  32.9537106
   2.1645595  69.5943022  33.3947468   1.0030684  70.5335045  33.6393332
   8.4491140  66.4150190  15.8893263   8.9785022  67.1811628  15.6679654
   9.0803665  65.6984234  15.9544837  42.6176023  54.4024801  20.8316445
  42.0645523  55.0783968  21.2234402  43.4548855  54.4836378  21.2883735
  58.2681028  17.3917245  45.9713984  59.1308252  17.1225881  45.6559563
  58.4485952  17.8823041  46.7732668  83.5278256  36.9209744  43.4146939
  83.1902678  36.9136931  44.3103681  82.7933390  37.2301365  42.8844319
   1.6591056  44.0860630  67.2341706   1.1827596  44.0919949  66.4039354
   0.9768541  44.0097310  67.9012065   4.3696639  81.3102245   2.2383311
   4.9377325  82.0331192   2.5047114   3.8709754  81.0945702   3.0263886
  42.1691756  11.7597436  18.1786501  43.0904822  11.5339898  18.3069503
  42.1179358  12.6902818  18.3970547  44.9811363  62.4929953  12.3653829
  45.3254652  62.1274185  13.1802559  44.0425348  62.5918818  12.5250137
  46.1835146  57.7774239   4.3860015  45.7351398  57.7065754   5.2287185
  47.0423460  58.1410360   4.6014702  40.2860928  66.8614721  15.1138306
  39.9090099  66.3402987  15.8226466  40.9343290  66.2840080  14.7106504
   6.0262173  58.7054920  20.4792929   5.6439340  58.8752556  21.3402653
   6.1043465  59.5705843  20.0771260  24.9992061  42.5088978   1.2036036
  25.9504104  42.5378180   1.3065854  24.8427081  41.7553377   0.6344923
  69.5545756  78.9203453  25.1391125  68.6423730  78.6602020  25.2673364
  69.9354696  78.2109261  24.6215510  42.4132590   1.7580270  17.6019251
  41.6316633   1.3246106  17.9446864  42.2135417   2.6924085  17.6591694
  12.2171648  34.3069197  68.9215632  12.4414309  34.8881651  69.6482603
  11.3566692  34.6085574  68.6303702  55.8112089   9.6727323  17.6842582
  56.1413567   8.7974690  17.8871071  54.9561517   9.5190095  17.2824144
   0.9557439  55.0620317  12.3237360   0.7679177  55.3792238  13.2071066
   0.2888203  54.3947268  12.1620142  49.8593665  51.2170865  63.1960057
  49.7346003  51.4007832  64.1270922  50.6981082  50.7578827  63.1527661
  20.1395713   1.1080503  38.4654856  19.4614903   1.3320016  37.8280830
  20.2042649   1.8800973  39.0276074  30.0973988  47.4678755  12.8961921
  30.0742579  46.8064308  12.2046828  29.2930007  47.3220778  13.3941054
  49.3041338  54.7462727  44.8410831  49.5180143  54.5279004  45.7481657
  49.8823280  54.1907669  44.3182717  11.0432284  24.1562985  26.8635869
  11.6575043  24.7639321  27.2755051  10.3399127  24.7146463  26.5321994
  34.4796729  76.6705751  37.8466392  34.2299843  76.0304976  37.1801639
  34.1579771  77.5062943  37.5085330   0.3251021   7.5753926  58.3272743
   0.3956740   7.4400186  59.2722225  -0.5480249   7.9475164  58.2031775
  29.1809559  20.9877849   7.1062911  28.5293388  20.5701089   6.5431094
  28.7354589  21.0992908   7.9461300  16.9052780  54.2992449  15.3169215
  16.9793737  53.4935904  15.8284485  16.1599517  54.1464710  14.7360766
  56.7112580  67.5686385  66.2106760  57.4208250  67.7670910  66.8217097
  55.9131327  67.7906444  66.6901980  86.5523587  26.9711685   8.5743695
  86.1013118  26.1341691   8.4638351  86.1524943  27.5466657   7.9223377
  24.9685121  15.2836168  64.4944000  24.1749525  15.7532907  64.2376804
  25.5843806  15.4454327  63.7797260  20.8288725   1.5549542  34.2882810
  21.4920338   1.2536408  34.9092947  20.9655960   1.0139061  33.5105882
  19.0512562  13.0591655  39.6417737  18.1439102  12.7591872  39.5873094
  19.0495420  13.9086890  39.2007089   3.4055585  52.7579832   0.5261592
   2.7435845  52.3433685  -0.0271190   2.9594496  52.9118872   1.3589452
  12.8324831  72.1018171  17.1357250  12.7807772  72.8803825  16.5812945
  13.0233693  72.4423885  18.0096841   2.6521125  71.7087057  65.1440404
   3.5462394  72.0107987  64.9843262   2.6884165  70.7638028  64.9954836
   8.0322256  40.3397163  67.0452638   7.5783005  40.7410606  66.3042466
   7.4169817  39.6859987  67.3774682  77.8258293  59.4848871  25.9173751
  77.6521587  58.6256361  26.3017631  77.7250128  59.3505192  24.9750304
   4.7935012  24.3682146  19.3958068   5.6445813  23.9387250  19.3095851
   4.2358658  23.9254165  18.7561166  65.0190654  79.9731161  66.1704902
  64.6258011  79.1009524  66.2006132  65.9405342  79.8278954  66.3850580
  34.4808371  16.5201308  39.7275649  33.9836724  16.2547900  38.9538370
  35.0900109  17.1841456  39.4047271  24.0248203  67.2307587  32.5908470
  23.1540012  67.2981596  32.9824638  24.0042424  67.8419590  31.8544769
  78.9409565  50.5668688  17.0856047  79.3869757  51.3030672  16.6669059
  79.0044253  49.8549175  16.4489472   9.7075897  32.5265169  48.8677073
   9.4534242  33.1692696  49.5299006  10.5100226  32.8813601  48.4850645
  76.0749316  37.7545571  16.2207294  77.0212578  37.7591848  16.0769331
  75.7677161  36.9691372  15.7679987  18.7680736  59.0261128  24.2137180
  18.1810584  58.2854333  24.0619360  18.3842638  59.7432353  23.7090813
  83.6546861  55.1988029  17.4752259  83.0434024  55.7404852  16.9760823
  83.1664717  54.3970060  17.6623046  79.0115737  56.2626648  22.5433874
  79.4539111  56.3234425  23.3900714  79.1135525  57.1324110  22.1569014
   2.3630919  33.8551021  29.7417116   1.9101863  34.1555548  28.9537787
   1.7040157  33.3515477  30.2195001  65.2989997  20.0611998  39.0331732
  65.4160119  19.1932465  39.4194327  64.5130463  20.4074599  39.4557987
   3.9899924  29.5164299  63.4847403   4.2921841  29.8750663  62.6502991
   4.7734797  29.4955039  64.0342331  14.6953475  78.6386442  36.5191984
  14.1571438  77.9595566  36.9259071  14.8464227  79.2750549  37.2180462
   4.7557314   3.7809683  63.5295431   5.1472004   4.6422125  63.6753093
   5.0860270   3.5095908  62.6731025  54.5240584  81.4744546  53.6587618
  54.3823400  80.9298446  54.4330655  55.4759636  81.5210845  53.5696982
  32.9259491  41.8549061   1.9024958  32.8258467  42.2136021   1.0207090
  33.6441422  42.3584175   2.2857802  20.2864861  69.6364307  24.1842008
  20.2080464  70.5848026  24.2874861  19.4827223  69.3772793  23.7336063
  79.1422253  31.9836497  11.5447998  78.9181649  32.6572943  10.9027469
  79.8222011  32.3851204  12.0858049  66.9504690  22.7875638   0.1260021
  66.1464500  23.2003522   0.4412650  66.7661583  21.8488169   0.1578909
  86.0638029  39.6862294  64.0379672  85.2948267  40.0677563  64.4614611
  86.0851080  38.7816454  64.3502365  36.6799140  77.4779034  20.9623647
  36.8319297  78.4210491  20.9023213  35.7448196  77.3743153  20.7860184
  39.6721959  67.5410652  29.0930414  40.1813078  66.9160271  28.5769343
  40.3143930  68.1857824  29.3899512  15.3806010  73.4876921  55.0757466
  14.7985080  74.0727713  54.5908950  16.0602048  74.0630319  55.4269634
  81.9092818  42.3662186   8.9317423  82.6949620  42.2514009   9.4663030
  82.2133770  42.8401852   8.1577182  26.8796229  40.3824568  24.8798943
  27.5520682  40.7784700  24.3256187  27.0424533  40.7455301  25.7504678
  81.4122183  63.0440474   4.1527632  81.7459495  63.8996173   3.8828447
  80.4725678  63.0866433   3.9753571  36.1794591  65.4254484  28.3189917
  36.0269856  65.8232689  27.4618292  36.6178584  64.5971727  28.1240606
  13.6165476  18.7172472  25.7103968  13.0147672  18.4539855  26.4066601
  13.7085974  19.6638465  25.8185983  57.0341276  60.7085705  29.7273922
  56.4126777  60.0810289  30.0964689  56.9485282  61.4844751  30.2813578
  84.5989147  57.4010827  67.9882206  85.1261773  56.7506864  68.4521270
  83.9263788  57.6582339  68.6189359  64.4022226  73.9429426  25.5822420
  64.4866847  74.4344568  26.3992596  64.6824502  74.5568085  24.9033666
  78.3032997   4.4878460  63.8695411  77.7735336   4.5822264  64.6611677
  78.0379898   5.2214981  63.3149211  29.5867944  63.6172962  11.6794693
  29.0642858  63.9034700  10.9302568  29.1608596  64.0198421  12.4362826
  49.1405201  13.4537804   3.7915191  49.1885519  13.0492210   2.9253459
  48.7727261  14.3226135   3.6300039   7.7559274  37.4913359  26.2930059
   8.2837462  37.8350306  27.0137787   8.3316296  37.5405669  25.5298710
  20.3025556  39.8794580  16.3834691  20.5220509  38.9540720  16.2752533
  21.0336947  40.2421379  16.8835998  39.5855348  11.0471105  23.6528730
  38.9416151  11.7014169  23.9239645  39.6525685  11.1557435  22.7042222
  70.7957553  28.4241056  37.1960211  71.6627144  28.7142634  36.9124341
  70.2934360  29.2327332  37.2961640  64.2421074  16.4736153  45.7530032
  64.3592919  16.6082550  46.6934119  64.9802143  16.9321944  45.3515826
  58.0100893  17.5094630  55.2258800  57.3091724  18.0932976  54.9359022
  57.7529566  16.6466404  54.9008416  23.2007861  23.3971596  21.6209841
  22.9788327  23.0739665  22.4942040  23.0503297  24.3412089  21.6696024
  44.7241640  52.1370316   2.7859074  43.9641762  52.0308876   2.2137342
  45.4441881  51.7275667   2.3061816  11.7778889  65.2755120  54.7956680
  12.5229851  65.2371242  54.1960071  11.6368643  66.2107494  54.9428867
  59.3833644   8.0319621  39.7697221  59.3734270   8.0096651  38.8128339
  60.2972056   7.8694130  40.0036083  10.3186357  24.1728735   7.7898830
  10.0077105  24.8166919   8.4263223   9.6141630  23.5268378   7.7390224
  27.4989510  39.0407038   0.9927632  27.6236916  39.2637420   0.0703071
  27.2269201  38.1230283   0.9826270  18.2888806  68.1803226   7.8862196
  18.2030654  67.7894211   8.7557387  17.7299690  67.6422977   7.3255223
  19.9901175  51.5946579  16.1384904  19.4099557  51.0352755  15.6220245
  19.9458194  52.4482536  15.7076299  27.3556972  16.1831379  28.2465696
  27.8118372  15.5392361  27.7047586  27.6794434  16.0226798  29.1329527
  70.6407892  66.8463039  25.8508348  70.6745231  67.5616264  25.2156925
  71.3534498  66.2621593  25.5917549   2.1918714  71.7278862  10.8414769
   1.5709260  72.1510029  10.2484930   2.1838757  72.2750092  11.6268611
  20.9333253  46.5067244  21.8715954  21.0318208  45.6386185  22.2626400
  21.6671085  46.5791273  21.2612224  33.2497883   7.6902968  24.2605662
  33.7549734   6.8855357  24.3762326  33.7593055   8.2050806  23.6347699
  23.8233447  64.6972942  16.8497348  24.0725064  64.7464752  15.9268403
  23.2242823  63.9522123  16.8967104  14.0960431   9.5455289   8.1636143
  14.0598595  10.3991818   8.5951233  14.7724783   9.0646011   8.6404520
  17.3676853   4.1896581  15.9785533  17.0613746   4.0551042  15.0817239
  16.7364137   3.7166452  16.5207624   6.1678799   3.9691616  60.9913115
   7.0427402   3.7598635  60.6641315   6.2151106   4.8961092  61.2253462
  50.1008129  64.5564604   6.3564664  50.5406857  64.0507030   7.0398080
  49.7646570  63.8971567   5.7493860  26.1482501  19.4222867  24.7802806
  25.2736330  19.0447164  24.8736501  26.5163493  19.3952155  25.6634569
  20.3056359  58.7604427   2.7685502  20.5258822  58.0617428   2.1524820
  20.6793594  59.5505238   2.3782405  33.7550552   8.3414389  48.9914952
  33.8511332   7.7602459  48.2370315  34.3982180   8.0211951  49.6239649
  18.4160113  31.2485766  19.8057497  18.5913289  30.9876013  20.7098436
  18.7252367  30.5113149  19.2793882  18.7153053  55.6174803   2.9363000
  18.4941888  56.4310360   2.4830155  17.9168272  55.3818607   3.4086841
  32.1602863  77.7050044  42.9545127  32.4064690  77.2943022  42.1256910
  32.6603397  78.5209372  42.9753385   7.0487493  79.9331141   4.8541966
   6.6666317  80.2970695   5.6527936   6.3181502  79.4959497   4.4167691
   8.4094495  62.9969597  16.2419224   9.1017449  63.6579847  16.2438738
   8.5851407  62.4684286  15.4634488  22.3524952  70.1615953  22.5415587
  22.9064775  69.3894672  22.4268699  21.6183043  69.8528910  23.0724955
  83.8681110  40.1670694   3.1512865  83.0013850  40.5727148   3.1296307
  83.7569966  39.3940258   3.7047222  66.1994448  47.9919609  60.7019029
  66.3217893  47.8225818  59.7677873  66.3677492  47.1486469  61.1222921
  33.3892312  75.1061489  61.0515462  34.0790936  75.4602435  61.6127400
  33.4549588  75.6131627  60.2423178  80.8981759  13.5778929  54.0316926
  81.4391811  14.0569951  54.6593927  80.2537377  14.2192437  53.7323640
  16.5907264  40.2006960  10.9762537  17.2799265  40.8528042  11.1027074
  16.7406642  39.5564890  11.6681671   0.0322444   4.2052257   0.7818481
   0.6736465   4.8858646   0.9857260   0.5261990   3.5509095   0.2877722
  85.2900091  43.7480622  59.6738933  85.1004377  43.3824909  58.8098036
  84.8960986  43.1282818  60.2878450  61.8666077  56.1049700   0.9452776
  61.8055153  56.6726065   1.7135802  61.9130516  56.7090750   0.2042455
  37.5864673  46.9984579   5.3112751  38.3418369  46.4125109   5.3594011
  37.5570440  47.2766066   4.3958518  65.2447690   9.5105053  60.1439534
  65.7669253  10.2837159  60.3578065  64.4613851   9.5926024  60.6878303
  82.1377547   7.0271136  46.6252862  82.2061784   7.8797175  46.1956082
  81.4194233   6.5868927  46.1709343  18.9120090  47.1001911  13.9855003
  19.3467379  46.3920403  14.4606447  18.0280840  47.1270847  14.3518138
  35.5783173  49.3238439  68.4830230  36.4669373  49.5097961  68.1796931
  35.0555923  49.2826226  67.6822166  61.0611049  28.1078507  58.5101150
  60.5407448  28.7021185  57.9694591  61.9307504  28.1198670  58.1103586
  86.3237454  33.3547473  42.8097534  86.6318399  34.0963626  42.2888756
  86.5537291  33.5827231  43.7105131  17.0893753  62.1703148  14.2586303
  16.7125154  62.9061365  14.7410941  16.8678713  61.4011288  14.7835326
  67.8028392  24.1317534  32.8115702  67.4874663  24.2023659  33.7125611
  67.6258706  23.2235789  32.5663471  54.6038961  33.9206147   6.9597399
  54.8091602  34.8547530   6.9982243  54.8263788  33.6631608   6.0650605
   8.4243178  45.5906248   8.7214518   7.6522130  45.1637793   8.3501190
   9.0324348  44.8731089   8.8991922  82.2349961  14.7399260  68.4116819
  83.1787069  14.8913027  68.4638865  82.1173818  14.2364718  67.6061170
  56.9991875  74.7429085  21.5727210  57.5833702  75.5002451  21.5353417
  57.5682545  73.9927292  21.4005947  10.1467574  51.8414021  18.2671869
  10.1063704  51.8756151  17.3114514  10.8208525  51.1883450  18.4552014
  31.3705134  33.8773799  12.2711992  31.2862945  32.9249549  12.2262311
  31.8175673  34.0393376  13.1019485  19.4059598  61.2222576   4.5291516
  18.6674082  60.7122517   4.1964856  19.9803698  61.3340569   3.7716657
  40.1258039  41.8161964  31.8608785  39.6433020  42.5499153  32.2417688
  41.0460854  42.0664406  31.9427061  38.5764313  44.6807814  29.9533391
  38.0492020  43.8933754  29.8182178  38.1097317  45.3664303  29.4755220
  19.8318291  46.7052174   7.9509908  19.7947252  47.0776987   7.0700181
  20.2772403  45.8656025   7.8374732  77.8357854  80.5959942  67.4370573
  78.3217302  80.8548787  66.6540708  78.2206216  81.1177947  68.1412284
  51.2399764  18.7962128  43.7728439  51.2307305  18.7365748  44.7281395
  51.3623263  19.7282196  43.5922204  24.7471142  26.2967658   1.2735894
  25.2936006  27.0666432   1.4313030  25.3690767  25.6012774   1.0598335
  71.5122381  67.2147395  37.4388133  71.7726388  67.9801156  37.9512773
  72.2908988  66.6581585  37.4270449   8.9847833  56.0311747  26.0608602
   9.1540968  55.1339293  26.3481188   8.2933426  55.9460545  25.4044342
  17.2691791   8.7226914   4.5272914  17.8157739   9.2657708   3.9593756
  17.8728287   8.3848142   5.1888633  47.5436640  56.8917751  13.0033100
  46.9219255  56.8411207  12.2772896  47.4761724  56.0407591  13.4362590
  79.9275715   3.5591294  67.1630217  79.2887790   4.2033125  66.8577288
  79.8880489   3.6164786  68.1176843  21.2234616  49.6619320  39.4485974
  21.9178128  49.7989511  38.8041329  21.5401912  48.9405489  39.9922132
  19.1831395  65.6683590  63.7506769  19.2197230  66.6248443  63.7452452
  18.5607353  65.4564240  64.4463263  20.6151588   7.4503972  49.6887956
  19.8417957   6.9239212  49.4863997  21.3527639   6.9142605  49.3977056
  50.5918138   1.6513585  36.7484212  50.2556412   1.8154763  37.6294923
  49.8112361   1.6268205  36.1949539   5.5485231  41.2048435   5.2702165
   4.7873262  41.1495399   4.6925035   5.9783107  40.3540993   5.1822132
  67.2278960  16.5354325  53.3692549  67.6421059  17.2493149  53.8540636
  66.3827355  16.8911530  53.0946623  10.3933207  81.4385726  53.3921431
   9.5142618  81.3622882  53.0210994  10.7240883  82.2712161  53.0551945
  20.5711818  66.0314560  44.8314428  20.8204937  65.8500862  43.9252520
  19.9562263  66.7623186  44.7689676  17.1181619  57.1906090   1.2286797
  16.7425227  58.0049896   1.5632091  16.3733387  56.7184162   0.8565181
  33.5016012  35.5615735   5.0964022  33.1766772  34.8592377   4.5330340
  34.2827606  35.8860159   4.6483409  26.3670659  38.4491158  33.6897588
  26.2932563  38.3977389  34.6427250  26.7373824  39.3161941  33.5246134
  25.8210802   8.8844514  38.5504436  25.6728244   8.8616937  37.6050687
  25.2381730   9.5742047  38.8677597   9.9273032  43.0281258   8.6390167
   9.5371890  42.7749968   9.4756579  10.7420325  42.5277472   8.5934967
  51.7475548  53.1330957  68.3354151  52.3918691  52.9751828  69.0254547
  52.0960918  53.8799634  67.8486474  66.9559132  30.5691719  17.9146338
  67.0454728  30.2000022  17.0360410  66.0109472  30.6421709  18.0485761
  81.6279347  15.7389857  59.7776769  81.7707450  15.5979325  58.8417600
  81.7697437  16.6773106  59.9028562  80.6644034  60.5258894   2.9595408
  80.7742172  61.4570093   3.1523931  81.4386468  60.1098442   3.3386004
  18.7344646  49.3654251  42.9937267  19.0591896  48.4900093  42.7829218
  17.7961898  49.2442226  43.1392670  49.0291969  27.0207547  11.3166296
  48.4787957  26.5696000  11.9567478  49.9026434  27.0188855  11.7081916
  10.7714081  23.2014990  19.5995641  10.8742952  23.5289121  20.4931235
  11.0841060  23.9163303  19.0450644  68.3483815  15.6954515   2.9276511
  67.5652682  15.4498792   3.4202579  68.0147862  16.1861300   2.1765313
  31.0725141  43.7156343  20.2916861  31.8971467  43.6300945  20.7701182
  30.6019855  44.4130754  20.7482028  37.8319526  45.3911638  24.0628290
  38.2086110  45.3042030  23.1871581  37.0303440  45.8970308  23.9296031
   8.9830989  33.2779288  29.0172386   8.1164622  33.5604739  28.7251091
   9.5493758  34.0315342  28.8509870  39.5765605  77.1487954  66.4471181
  39.6804026  78.0986073  66.5046258  39.0011766  76.9260194  67.1789212
  35.0794864  55.9307241  24.6085691  34.5658898  56.1919928  23.8442445
  34.6716976  55.1168013  24.9043179  36.3438535  47.2516632  11.6323328
  37.2378302  47.3929930  11.3207805  36.1849380  47.9740524  12.2398996
  18.4931191  14.3614603  61.9189946  18.8473232  13.8682534  62.6589422
  17.5515278  14.1915537  61.9466393  55.6431880  70.7311752  47.5724111
  54.8439517  70.8262803  48.0904923  55.8466282  69.7968271  47.6152550
  10.8737147  29.7876048  21.7975736  10.5666959  28.8815570  21.7651963
  11.8282843  29.7175741  21.7864847  76.1324246  12.5361658  55.4085468
  76.3258583  13.2950999  55.9588562  76.7115397  12.6344992  54.6527766
  12.9445970  41.4801931  15.4204392  13.2505727  41.7785263  16.2769496
  12.6009071  40.6014824  15.5816114  68.0774021  73.9380264  13.8395631
  67.5453472  74.7335196  13.8581085  68.8864946  74.1804790  14.2899108
  42.0899725  34.3249178  16.7353916  42.2476912  34.7812438  15.9088790
  41.7075443  34.9904656  17.3072553  11.6042578  53.5848427  14.4312108
  10.8243132  53.0867147  14.6757174  11.4555001  53.8297033  13.5178947
   6.3922560  40.6399393  20.2976418   5.5572474  41.0796642  20.1375341
   6.9502264  41.3172913  20.6798697  44.9631135   6.1090421  24.5987344
  45.6122295   5.9021138  25.2710891  45.4723494   6.1961602  23.7929296
  81.1418396  61.0407877  28.2425404  80.6277245  61.6853762  28.7287712
  80.6972849  60.9676075  27.3980021  62.2823634  59.5681956  49.7169576
  62.0778218  58.6344566  49.6666919  62.1434870  59.7946443  50.6365572
  29.9260044  36.5856910  14.6787870  29.7578645  36.1044407  13.8686275
  29.3228197  36.2016225  15.3150988   2.7590735  24.8428370  46.9882737
   3.1559165  25.5069758  47.5518905   2.9824765  25.1185776  46.0992895
  25.4837465  58.1077480  15.6690836  25.6091166  57.5358200  16.4263237
  24.5374751  58.2457876  15.6272495  32.8167510  34.7290134  16.3709593
  32.3149610  35.1444721  17.0722675  32.7780795  35.3534126  15.6464863
  28.0067921  60.4052019  11.2697220  28.6025333  60.1795483  10.5552948
  28.5296392  60.9555721  11.8527794  67.7326575  33.6650469  53.8993214
  68.5853138  33.5789099  54.3256865  67.4339524  34.5430156  54.1363417
  26.1958671  67.7884674  20.6143212  25.5286765  67.8626156  21.2966609
  25.7038903  67.8200817  19.7938383  35.3514457  63.7323809  20.4365396
  34.4940758  63.8577747  20.0298142  35.8237863  64.5448923  20.2550292
  39.2619300  55.4216051   4.7055182  39.9922013  55.5733776   4.1056004
  39.0400887  54.4984198   4.5840725  18.7886341  58.6095787  59.5044504
  19.4776876  58.3690335  58.8851188  18.2420500  57.8265740  59.5706282
  22.7812107  18.0081107  70.0383610  22.5285919  17.1913983  70.4689371
  23.2041224  18.5210730  70.7270156   4.9416819   4.0663046   6.7470592
   5.0969654   4.9646628   6.4553899   3.9883894   3.9819393   6.7657083
   2.9926515  35.0465894  25.0655460   3.6672646  34.9162483  25.7319856
   3.4325778  35.5389166  24.3725038  23.1055474  51.4911699  18.0819607
  22.3034239  51.0631657  18.3813667  22.9863024  51.5894842  17.1373200
  52.7149404  12.0756985  66.7491950  52.7258201  11.4101054  67.4370180
  52.8780745  11.5883233  65.9416775  74.5746510   6.6723584   3.1119037
  75.0806181   5.9271192   2.7881032  74.6927874   6.6476201   4.0614635
  50.5841079  80.7047846  55.8384894  49.8614302  81.3221385  55.9518324
  50.2405253  79.8718836  56.1616884  38.7375069  43.4702492  33.5491276
  37.8205609  43.2031918  33.4849238  38.7011576  44.3927813  33.8018155
  11.9939911  66.3439655  13.7668276  12.5382638  66.9485188  14.2713165
  12.4518216  66.2495995  12.9315317   9.1645527  49.0113783  46.4646387
  10.0053108  49.4502926  46.3353634   8.7364525  49.5133495  47.1581697
  32.6754999  55.4629135  38.1524706  32.8767586  56.3908339  38.2736802
  33.1141210  55.0254011  38.8821459  52.3177998   1.6195249   2.2188306
  52.0378129   2.5009297   1.9719319  53.0999677   1.4599275   1.6906506
  18.8851988  24.2236114  29.2032957  18.1769204  24.7403693  28.8191915
  19.0233290  24.6115565  30.0673842  56.6285467  68.5679817  14.5898759
  57.3586035  68.8324308  15.1496220  56.7248154  69.1029549  13.8019872
  46.4737275  66.8654945  63.4869943  46.7988685  66.0722306  63.9127277
  45.5263915  66.7385151  63.4353880  58.1957806  26.8168188  60.2926074
  57.8081439  26.4862086  61.1029564  57.4524653  27.1505667  59.7902845
  11.5546520  32.9556204  46.9684325  10.9747823  33.1613995  46.2351929
  12.1966036  33.6656262  46.9726835  75.9814854  21.7864777  58.6665200
  75.9728284  20.9297730  58.2396458  75.1338799  21.8428303  59.1076778
  63.8980643   2.5092172  42.8638029  63.4392182   3.3456182  42.7856112
  63.2181470   1.8860578  43.1199741   1.5409430   4.3620516  51.3224231
   0.9372981   3.6673857  51.5856419   1.3378294   5.0907923  51.9088648
  34.8918295  76.1480093  11.1980045  34.8974776  75.2648878  11.5671825
  34.4586992  76.6829252  11.8632102   7.0508927  57.6080799   7.3082668
   6.9211394  57.4638939   8.2456070   6.4114404  58.2824087   7.0788902
  14.4608315  28.5896899  44.7931825  15.3492077  28.9401127  44.7282444
  13.8975485  29.3119456  44.5151697   9.6888384  43.2535908   0.0044169
   8.9681325  43.2324860  -0.6251655   9.3061695  42.9242966   0.8176579
  85.3102310   5.2880026  51.2957309  85.5986221   5.2157427  50.3858744
  86.0108859   5.7734419  51.7312346  38.9509892  54.7942543   0.3574778
  38.1992602  54.3433285   0.7419263  38.5658741  55.4352665  -0.2400359
  78.6587984  39.8907162  68.8625879  78.7981016  38.9503409  68.9744848
  78.3905275  39.9860264  67.9487072  17.0021260  49.7582531  10.4042578
  16.1947668  50.2718687  10.4287851  16.7623007  48.9164066  10.7915723
  34.1520460  32.2987057  59.8321937  33.8678940  32.7033640  60.6517909
  35.0606306  32.5812746  59.7279595   6.5009006  41.7278458  47.8957640
   6.2751968  42.6144959  48.1770740   7.4484165  41.6712929  48.0192481
  22.2427034  71.6135359  14.0654147  21.5253067  71.0895920  13.7089670
  22.4029303  71.2416553  14.9327481  31.2867904  58.2963085  12.2508335
  30.9033728  59.1531134  12.0634627  31.1165285  58.1562376  13.1822956
  83.9960390  59.2816353  10.3412938  84.8999033  59.0409613  10.5446112
  84.0226700  59.5611811   9.4262105  30.1343250  65.7441330  28.0031967
  31.0508680  65.5831146  28.2273674  29.6378660  65.2881813  28.6828041
   1.2464912  30.8524681  60.0643574   0.7818897  30.0653006  60.3485165
   1.7557700  31.1193777  60.8296172  18.0681427  28.4070612  62.7687220
  17.3114641  28.6157395  62.2208939  18.7380512  28.1148602  62.1506010
  52.2607756  36.9181633  20.5715656  51.5749598  37.5837040  20.6258202
  51.9624138  36.2188339  21.1530733  44.0007941   8.5468148  50.7722569
  43.7560873   8.5530900  49.8468828  43.3090047   8.0417298  51.1995173
  20.6316900  19.7389662  17.8885484  21.3632274  19.9776149  18.4578741
  20.4895711  18.8078105  18.0587924  71.9836910  43.6429287  64.2589192
  72.5189741  43.7793232  65.0406490  71.7506702  44.5256306  63.9712016
  82.8022845  40.2857186  59.5052896  83.0698354  39.6411969  58.8501273
  82.9208715  41.1310078  59.0720878  35.7586367  11.3600089  67.2709931
  36.3614781  10.6234909  67.1692468  35.2494962  11.3665224  66.4604591
  29.9628806  59.8084974   5.0327945  29.1367316  59.5520878   5.4426265
  29.8033786  59.7153473   4.0935850  27.7562284  74.5323849  10.7081008
  28.6119437  74.2838955  10.3584743  27.4878907  75.2808285  10.1751351
  11.7702937  71.3346195   0.8544032  11.9503188  70.6655359   1.5148197
  12.2876883  71.0668278   0.0949144   7.1439846  69.7540928  57.2468053
   6.3666327  69.6573235  57.7968870   7.1432455  68.9742352  56.6917859
  24.3167353  41.6538954  62.5545597  24.3885183  40.8058214  62.1165514
  23.4706497  41.6220093  63.0010509  42.9378097   7.8946828  22.9710913
  42.0192711   7.7427815  23.1934595  43.1798915   7.1447228  22.4277711
  35.6127834  53.9895821  37.7964330  34.9311543  54.2132330  38.4301496
  36.1613989  54.7724915  37.7484536  30.7741986  12.8966283   8.9315218
  30.0527270  13.2655953   9.4410074  30.3945617  12.1328591   8.4970587
   5.9322101  55.8704376  20.8085275   6.8437177  55.6156731  20.6654239
   5.9825063  56.7722511  21.1254525  48.6781263  74.7997952  34.4310784
  49.0249777  74.1204929  33.8527369  49.4293880  75.0723410  34.9579191
  86.1495883  11.2695290  53.4510671  86.1912496  10.8581854  52.5877641
  85.2271325  11.2112452  53.6998831  23.5861516  69.5904398  30.5664396
  22.8280878  70.1484823  30.7400966  24.2628860  70.1941872  30.2602553
  16.2959099  74.6765614  20.4402828  17.0140696  75.2866077  20.6085801
  16.2824476  74.1048431  21.2078667  12.7081020  44.3339898  54.8190711
  13.2441767  44.0496708  54.0787874  12.3326977  45.1679684  54.5366131
  58.0294085  59.7758627   5.7723862  57.5258541  59.9781418   4.9838772
  58.0173635  60.5878353   6.2791288  28.4910067  29.1450144  44.1308604
  29.1978844  29.0323092  43.4953628  27.7062948  29.2686392  43.5968409
  47.9655981  45.5086327  19.7948217  47.9272604  45.6234980  18.8453126
  48.7878895  45.0428104  19.9467218  21.1351967  10.8938742  17.4915564
  21.4256835  10.6115544  18.3588195  20.3446674  11.4069581  17.6590157
  41.5225830  77.4661400  63.3806901  41.3905111  77.0109322  64.2123000
  42.2578707  78.0565598  63.5449664   3.7737091  25.9456374  44.9014912
   4.2958410  25.3825594  44.3300424   3.9112790  26.8285729  44.5583759
  39.9607663   4.4782209  20.8266521  39.7721223   4.0635537  21.6684937
  39.1489415   4.9290799  20.5944824  28.4537148  42.2879601  40.0623274
  28.0675793  43.0733490  40.4500008  27.9892516  41.5620565  40.4789448
  37.2583699  56.2797499  34.0971541  38.1290793  55.8864498  34.0387368
  36.6598177  55.5333233  34.1256618  82.1744473  21.7869259  69.9225967
  82.1747858  20.9133555  70.3138815  82.3637159  22.3764206  70.6526018
  15.0408323  44.5552041  69.1649158  15.5563648  45.2653004  68.7825076
  15.5532988  44.2670895  69.9202935  34.1303587  70.1018429  19.7720575
  33.2851911  69.6550655  19.8201549  34.2112231  70.3632641  18.8548052
  81.5586240  22.1696164  49.1697942  82.1891577  22.8888537  49.2066775
  81.7309363  21.7428423  48.3305059  13.9686739  40.9011173  18.4110653
  13.0592418  40.6892872  18.6215258  14.4603181  40.6493711  19.1928208
  45.7658020  80.1485922  57.9654847  45.6898609  81.0850170  58.1487273
  45.3462044  80.0366642  57.1124636  25.8823156  45.6380320  33.8333678
  26.3031602  46.1810923  33.1668806  26.4143968  44.8429918  33.8655233
  81.9506597  34.9845886   5.4909003  82.3893943  34.1485977   5.6485891
  81.0686999  34.8622298   5.8421940  27.7184303   4.4683911  39.2141734
  27.7994497   5.3881146  38.9616309  27.1889599   4.0752579  38.5203849
  30.7093456  17.8186940  29.3587255  31.2288503  18.0998563  30.1119113
  30.1559202  17.1155118  29.6985602   9.1279824   7.8984047  61.3693730
   9.0806516   8.5393359  60.6600056   8.3179029   7.3945071  61.2913315
  49.8864079  53.1009626   6.5344411  49.1096497  52.5652838   6.3734365
  49.5676041  54.0027046   6.4962661  81.1462719  34.1853882  53.5145853
  80.6991489  33.3631016  53.3142052  81.7637641  33.9589621  54.2100464
  28.6943014  11.8751551  64.0970032  28.7066515  10.9180428  64.0932165
  27.7809818  12.1035839  63.9240818  74.2028565  18.7322451  62.8932975
  74.0300209  18.0041243  63.4901230  73.3797378  18.8548304  62.4203472
  25.3077126  66.6566658  10.3359842  26.2507892  66.7919493  10.2435851
  25.1215029  66.8825436  11.2473226  24.1340920  54.5740654  62.6478229
  24.1569811  55.5258729  62.7466689  24.3699696  54.4225719  61.7325942
  71.3158457   0.7413339  40.0266552  70.8514254   1.3716840  40.5772924
  70.6386177   0.3759812  39.4573474  36.1323121  78.1286671  45.8770834
  36.3775000  77.4973085  45.2006970  36.1039349  77.6155927  46.6846619
   4.1689913   7.7532529  33.8427663   4.4331114   6.9793843  34.3403673
   4.0906851   7.4427556  32.9407167  71.0798828  24.7039270   1.6541895
  71.4136736  24.4732904   2.5211516  70.3282110  25.2699708   1.8297327
   5.8290875  50.4325485  28.2130861   6.5476614  50.2315378  28.8126493
   5.9693605  49.8494148  27.4670887  16.4091122  28.1705093  17.1001089
  16.3858294  29.0553665  16.7358053  15.5186474  28.0182576  17.4165308
  49.3589067  77.3634148  39.6456242  49.5362091  77.0722628  40.5400658
  50.1580143  77.1531391  39.1624570  16.6571057  50.5173206  29.5649076
  17.3610079  50.4698753  30.2118230  16.8871844  51.2663317  29.0151072
  56.8188524  70.3026485  27.2832489  57.5273466  70.4659176  26.6606641
  56.3073874  69.5984745  26.8847847  21.2510157  81.6613579  31.1936092
  21.4752746  81.8015289  32.1135521  21.6372418  80.8120823  30.9796476
  72.1654124  30.7886530  64.6858905  72.6354940  30.4160382  63.9399604
  71.2969501  30.9973170  64.3417029  29.5396686  56.7020512  35.9360909
  28.7144399  56.4922094  36.3733506  29.6370840  57.6475191  36.0493636
  79.7388117   1.7243718  20.4616165  79.5330374   1.8288659  21.3905787
  79.8920004   2.6158284  20.1484776  50.3100586  81.6746426   7.2220016
  50.6162262  81.5832329   6.3197052  51.0275078  81.3309765   7.7543467
   4.4245359  63.9464092  11.2005448   5.2449369  63.9191294  11.6929162
   4.1175371  64.8479605  11.2963986  40.7216575  71.2534358  62.8672837
  40.6587067  71.9555428  62.2197370  40.3008285  70.5027249  62.4482767
   1.3056535  75.6275463  33.9024186   1.5079838  76.0839319  34.7191238
   0.4233425  75.2805662  34.0341878  30.0000978  47.5283527  20.1338315
  29.2285085  46.9633627  20.1746416  29.8784614  48.1519556  20.8497596
  15.6103285  13.5372759  62.3330121  14.7860916  14.0042044  62.4702750
  15.3861292  12.8274037  61.7313079   7.6385267  22.8740908  58.4438835
   8.5446890  23.1764628  58.3832918   7.6030548  22.1075417  57.8717123
  49.6660089  68.6774874   5.1195019  50.5585098  68.4672165   5.3942108
  49.1078997  68.2275677   5.7537872  39.6058059  64.4230175  12.8259468
  39.6720815  63.5585785  13.2316363  38.7014055  64.6933842  12.9846764
  70.6265402  54.7407913   5.0911105  70.0075722  54.1253757   5.4840225
  71.4752197  54.4946623   5.4590654  77.1414810  41.1338329  28.3547378
  77.5380068  41.5360498  29.1275406  77.2611540  40.1932859  28.4861898
  20.8396940   2.3387193  22.0394015  21.7858563   2.3851823  22.1766973
  20.5038439   3.1560086  22.4074793  72.1518175  32.5918721   8.9999968
  71.7820017  32.8553247   8.1573462  72.1242468  33.3866834   9.5326644
  83.7310369   0.8475758  66.2345119  83.0628068   0.2357127  65.9257673
  83.4425075   1.7008377  65.9105815  45.8182955  68.7055969  44.8966408
  45.2809095  69.1961527  45.5185795  45.5961275  69.0771961  44.0429544
   5.2309030  59.1666603   5.5319691   5.2584708  60.0241375   5.9564757
   5.7522261  59.2762423   4.7367039  69.4215042  47.4461438  58.5082982
  68.9029558  46.8869473  59.0867792  69.2974741  47.0697762  57.6369809
  46.0034943  53.3939505  11.1722350  46.5013027  54.1385269  11.5099025
  45.0942326  53.6930704  11.1741889   7.4944360   5.2274395  42.2144924
   7.9955919   5.7236649  42.8616677   7.0151718   5.8930375  41.7210208
  27.0571621  56.5169503  63.9277331  26.5482624  55.7078625  63.9789669
  27.8114326  56.3618924  64.4962971  58.9729424   7.8060461  63.9443229
  58.6336746   7.1070792  64.5034073  59.8779128   7.9252888  64.2324929
  38.0102611  34.7490525  16.2236786  37.1533871  34.3233538  16.1957896
  38.4996128  34.3497252  15.5044389  79.3368752  35.6539418  54.8911796
  78.5250456  35.4277731  54.4372950  79.9928410  35.0666357  54.5156668
  42.4317694  65.2740622  22.3390675  42.6442194  65.0351000  21.4368510
  41.9569111  64.5169497  22.6818824   7.3191722   4.3639923  70.0047378
   6.8077167   5.1386239  70.2383903   8.2251151   4.6723486  69.9843064
  16.6927290  52.3899078  26.1939096  17.3876536  52.0115662  26.7325807
  16.0217810  51.7083216  26.1551547  59.4983582  25.8365609  52.1102498
  59.8847176  26.4740111  51.5097354  58.5552674  25.9864737  52.0443939
  24.3881011  80.2559376   8.6703241  24.5820189  80.4525375   7.7538222
  23.4324360  80.2195168   8.7104565  76.5345013  66.7619467  30.0536513
  76.8159073  67.4380064  29.4372225  75.6116413  66.9562531  30.2173781
  68.5612602  14.7707058  68.7039125  68.0975587  14.3797423  67.9633997
  69.3954785  15.0631167  68.3367486  38.9801574  54.8978996  11.2229896
  38.1903601  54.7535753  10.7018137  39.6829581  54.9718571  10.5773664
   6.2813359  66.0735512  14.2105997   5.5824220  65.7488203  14.7783148
   7.0669764  66.0431147  14.7565615  35.3975828  51.8079354  66.5706997
  35.3274591  51.7551972  67.5238694  34.9093683  52.5976826  66.3379548
   2.5190766  33.3933045  65.9327371   1.6298898  33.1413676  66.1819462
   2.4571283  34.3282105  65.7368968  60.2969019  12.1352815  41.7514944
  60.7701866  12.1011113  40.9201908  60.8907358  11.7279481  42.3821115
  34.3633294  60.9543800  36.7975879  33.6095881  60.4682493  36.4632463
  34.6621799  61.4752626  36.0522008  48.1902981  73.1522083   9.0629756
  48.1651068  72.4956512   8.3668959  48.1789732  73.9908600   8.6017078
  57.7424049  51.1718941  48.4130716  58.1844378  51.6189480  47.6912832
  56.9074488  50.8861351  48.0423737  43.0939770  57.3400354  23.6505032
  42.4017572  56.9306993  23.1313658  42.6949406  58.1394815  23.9938426
  42.2864103  62.8810692  13.0195284  41.5045452  62.7595139  13.5581815
  42.3438072  63.8278437  12.8908741  18.4714993  18.0671479  69.1824402
  18.3368595  17.1546055  68.9267681  19.0343054  18.4273650  68.4970763
  38.7257838  65.4766035  21.2368202  39.0029645  66.2796545  20.7957840
  37.8131795  65.3608274  20.9722805   5.2357912  47.0816326   0.9036460
   5.7689327  47.2934341   0.1374006   5.8693147  46.9672203   1.6120169
  13.4682131  79.9873829   6.7136264  14.0012527  80.7809925   6.6657537
  13.5132420  79.7236919   7.6326871  49.2596054  18.3160913  17.1590495
  48.8455963  18.1392133  16.3143361  50.0080109  18.8738513  16.9468558
  34.5480068  45.2546193  62.7893637  34.9917801  45.0976349  61.9559060
  34.9795540  44.6628739  63.4056727  37.1116948  47.0273113  33.4555411
  37.9537392  46.7001200  33.7719893  36.6748047  47.3613548  34.2389798
  84.7447300  76.9443178  62.2021246  85.3090286  77.5369692  61.7055702
  85.3336525  76.5188789  62.8253412  62.0378542  52.5851583   7.2221041
  61.0908794  52.4456263   7.2218084  62.1414709  53.5253143   7.0751208
  77.8765042  -0.0120376  64.5612918  78.1083519   0.2995087  65.4361741
  77.7716584   0.7857920  64.0429227  79.1873041  66.6457345  61.4619677
  79.8457876  66.2902620  62.0588551  78.7896934  65.8747461  61.0573558
  50.4148245  79.7037840  30.7078362  49.5826340  79.4393730  30.3156900
  50.7033825  78.9344501  31.1988449  46.7571449  67.4740410  21.3656569
  47.4690914  67.3349476  20.7411456  46.8147087  68.4024048  21.5916204
  74.7166700  43.5668255  32.5468622  74.3762786  44.4451500  32.7168928
  74.2332978  43.2675530  31.7767869  22.1352053  61.3838577  19.9001229
  21.4706111  62.0027971  20.2025509  22.7948523  61.3828373  20.5937338
  24.4548736   4.1081285  26.1916828  25.1039977   3.8656282  25.5313325
  24.6965052   4.9976586  26.4497209  71.6845273  70.3716326  17.7861178
  71.6785335  69.4511986  18.0487931  71.3489651  70.3670645  16.8896747
  36.8663907  71.7760038  20.1778150  37.5687027  71.6793442  19.5346618
  36.6838026  72.7154922  20.1937032  26.5463798  77.3799064  57.4331544
  26.3157066  77.2368100  56.5152512  26.0154587  78.1305816  57.6993166
  26.6362548  37.7547431   9.6544909  27.4016571  38.3223033   9.7454220
  25.8888507  38.3505869   9.7053641  25.7895716  30.8934142  60.4791747
  26.5744646  30.3792216  60.6683563  25.7128485  31.4947153  61.2199704
  54.4529119  76.6116288  47.6009403  55.2620831  76.3668945  48.0499135
  53.8079610  75.9727576  47.9044376  70.0457306  14.1995312  56.8034731
  70.4667528  13.3488251  56.6799174  69.9339123  14.5424630  55.9168349
  81.2956221  16.6729952  63.3200113  81.1888940  17.5577284  63.6694257
  80.4447515  16.2567736  63.4578751  23.8416624  56.0492182   4.0244535
  23.6900473  56.9396114   4.3413863  23.2234216  55.5106544   4.5183754
  42.4487643   1.8827485  14.4764256  42.0787148   2.2377061  15.2846932
  42.6497046   2.6538705  13.9461255   0.3031858  40.5902172  61.5802054
   0.0181826  40.3507401  62.4620549   0.2019938  39.7870423  61.0694168
  24.7361095  51.1525608  69.1354830  24.2689045  51.7746045  69.6931679
  24.7517546  50.3409745  69.6427430  24.5689440  33.0268717  24.8051572
  25.3034019  32.8257561  24.2251945  24.8125267  32.6362467  25.6443882
  63.4009885  62.7684546  25.2553153  63.6077260  61.9597483  24.7868180
  64.1133952  62.8682423  25.8867812  36.2116365  21.0431241   1.3813847
  35.5446391  20.3565930   1.3858998  35.7390718  21.8344831   1.1231928
  35.8880814  40.0604989  62.4980603  35.8207233  40.0093438  61.5446041
  35.2480467  40.7269360  62.7479730   7.3855098  19.9641491  62.4793421
   7.9947598  20.3252818  61.8354247   6.7954667  19.4113041  61.9670503
  46.6947031  67.1726751  28.9286947  46.4100695  66.5321589  29.5805764
  47.0096922  66.6442680  28.1953454  86.8455259   4.0440702  34.2227602
  86.9949381   4.6621942  34.9381828  85.8961050   3.9236116  34.2046666
  34.3715978  57.2328758  19.6571851  33.6639977  57.8707314  19.5640254
  33.9247751  56.3919544  19.7543013  30.3683329  38.2804465  21.4739203
  29.4549060  38.5620260  21.4229798  30.3199220  37.3360491  21.6222525
  58.9652745  47.1986341  15.3138065  59.1614048  46.2745427  15.1594627
  59.0205638  47.2997521  16.2640429  60.2295391   2.0531892  54.5730877
  59.9566047   2.9668187  54.4892740  59.9135844   1.7870759  55.4365587
  52.0597403   4.0258645   1.0711461  52.1872441   4.9620389   1.2246571
  52.5087015   3.8556146   0.2430895  11.8499716  56.3548924  66.5339608
  11.6814955  55.6993939  67.2108431  11.5898283  55.9283806  65.7174759
  49.5954466  57.4358940  19.5683527  48.7732792  57.2154140  19.1305566
  49.3580055  57.5292158  20.4909277  20.3801036  74.0429640   8.9031607
  20.7727122  73.2794094   9.3263352  20.9728980  74.7645187   9.1133583
  27.6188445  65.0369120  13.3256912  27.3689914  64.6533298  14.1663265
  26.8132377  65.0266647  12.8088510  41.1535911  12.6717519  51.7383194
  42.0698361  12.5159215  51.5093136  40.8773105  11.8689393  52.1803379
  42.0731878  65.7768202  18.8736188  41.8657398  66.6689253  18.5955036
  42.8552437  65.5454731  18.3725226  48.7111044  75.6905127  26.8935204
  49.1668034  75.0411272  26.3579178  49.4004965  76.0895300  27.4243259
  38.1965017  80.0870132  24.7117162  38.7926221  80.8228207  24.8512292
  37.4350214  80.2892971  25.2552819  41.6380072  78.0207968   2.5274771
  41.0109282  77.6580954   3.1531402  42.4650478  78.0525064   3.0083415
   9.3306287  36.5625025  56.4807306   9.7538050  37.1546675  55.8590411
   9.1073950  37.1185566  57.2271906  23.0912018  74.2582703  22.6608729
  22.4553156  74.9603844  22.7983999  22.9748940  74.0058184  21.7449164
  15.3776701  32.4230553  38.3852039  15.0325020  32.6108958  39.2580186
  15.6265743  31.4994265  38.4197436  41.1215067  56.4493704  21.8418574
  40.4008150  55.9188318  22.1815133  40.7278442  56.9662189  21.1389160
   3.9930852  58.7400223  64.1910259   4.6439465  58.8870408  63.5047345
   3.5279687  57.9503323  63.9148037  80.9024708   1.7727136  37.2854781
  80.8955090   1.0102223  37.8640842  81.8264620   2.0131539  37.2172165
  43.5687542  54.6409464  15.8593798  43.1414986  54.4144011  16.6854322
  42.9946756  55.2975416  15.4649866  81.6802962  57.7534176  62.1851204
  82.4523504  57.6876046  62.7471094  81.2080676  56.9334961  62.3299049
  56.7025328  43.5722160  10.8171916  56.9663429  44.4777727  10.9802997
  57.2796726  43.0504751  11.3748014  76.1150153  50.0504376  66.1297293
  76.2351127  50.0712563  65.1803218  75.1702995  49.9535920  66.2495793
  34.2705584  56.5969133  15.1629531  34.1762543  55.9454823  15.8579206
  33.8831234  56.1824656  14.3920076  46.2500529   9.9847554  19.7796607
  46.9271247   9.5999860  20.3362203  45.5798738   9.3045949  19.7128069
  66.9898653  78.2598877  26.5751934  66.5534687  78.9169312  26.0329032
  66.8629646  78.5674334  27.4727130  58.3019464  16.0875939  17.1081722
  59.2150442  15.8006238  17.0964301  58.3306567  16.9907807  16.7924821
  59.6748781  64.5705938  38.3930683  58.9594746  64.3106413  38.9734650
  60.0950146  63.7465286  38.1468368   7.3137658  18.0316686  35.4113293
   7.9107421  18.7028264  35.7420826   7.3008149  18.1684255  34.4640398
  74.9311916  18.7308930   2.3922098  74.9372141  19.6094560   2.0123237
  74.3843786  18.8115930   3.1736907  85.5207379  28.2108904  42.3128186
  84.6393282  27.8433968  42.2472535  86.0011775  27.5856234  42.8554521
  61.5112297  13.7183713  21.1015010  62.3187153  14.1158914  20.7756448
  60.9519188  13.6439561  20.3282833  65.9652948  76.6755629   2.5846013
  66.2161350  77.0928383   3.4087321  65.0344229  76.4787722   2.6893836
  65.1628567   0.3246571  48.7520538  65.1500679   0.9768368  48.0515323
  65.1780350   0.8398177  49.5586596  11.6423190  46.7611980  15.9464359
  12.2594237  46.0298634  15.9701097  12.1332669  47.5005531  16.3049877
  10.8268225  67.2461987  26.8180799  10.6713891  66.3183308  26.6416287
  10.2769530  67.7060318  26.1837101  67.7166755   4.7669674  67.3232014
  68.1803090   3.9569880  67.5358279  66.7910994   4.5490052  67.4329056
   4.5611628  38.1254603  70.3142254   4.8255308  38.0197550  71.2280997
   4.0913685  38.9592387  70.2957053  26.0885072  61.8601990   9.5109046
  25.4374242  61.9492388   8.8149184  25.9667182  60.9697580   9.8403227
  49.2403889  41.2003708   6.1939287  49.3959856  41.5575409   5.3196007
  49.2173243  41.9678068   6.7655432  70.5297232  27.9932380  21.3165641
  69.8149586  28.3675170  20.8015299  70.1122046  27.3163438  21.8492246
  17.9864454  44.1480589   1.2299661  17.5179935  44.9106455   1.5694389
  17.4060369  43.4092951   1.4132401  41.0531521  29.5968246  25.4127121
  41.8714046  29.1151357  25.2916145  40.4088116  28.9233994  25.6307840
  52.1492567  53.8825109  38.8703190  52.0422783  52.9313292  38.8639603
  51.9464507  54.1403355  39.7695576  28.9957356  35.2568865  12.3232222
  29.6193552  34.5494676  12.1592414  28.1482244  34.8932910  12.0667922
  65.8978987  27.8305078  32.5341272  65.5223846  28.7091732  32.5903988
  66.7870331  27.9277468  32.8750300  19.1466546  79.1263342  20.5920315
  19.9494576  79.5317125  20.9197593  18.4937739  79.8254442  20.6270266
  58.9260674  53.9716339   2.7248222  58.3362484  53.4222794   2.2085311
  59.2269325  54.6422291   2.1116224  38.3394933   2.9882631   6.6742557
  38.4018707   2.2411412   6.0791504  38.9466524   2.7801698   7.3843890
  44.7426262  55.9835102  57.4116371  43.9525023  55.9707000  56.8714772
  44.5706931  55.3439333  58.1027327  29.9607182  75.0739145  27.5776005
  30.8473134  75.1917124  27.2365642  29.7268105  74.1786718  27.3325253
  53.1269979  48.3665800  12.4026442  53.1552935  49.0114641  13.1094384
  53.8318157  47.7529812  12.6099098  11.7889428  35.7332540  13.8905168
  11.4639258  35.8230853  12.9946792  11.1665964  35.1411867  14.3128574
  48.7926102   9.4051081   2.9517207  48.0224895   9.0813619   2.4844590
  48.4350538   9.9263591   3.6705261  33.0115175  59.0525951  67.5342457
  32.1326276  59.2945900  67.8261755  33.0862564  59.4326236  66.6589032
  54.6324794   7.3419618  22.2747588  55.3871219   7.7143334  21.8185925
  54.2790739   8.0695294  22.7866077  10.0292051  66.9965649   4.4662142
   9.5980114  66.9476175   3.6130390   9.5981693  67.7264214   4.9109030
  51.8456507  76.1447144   2.7423790  52.6773691  75.9163141   2.3272717
  51.2710142  75.4034567   2.5511619  63.6030579  72.9430056  31.2544656
  62.7345943  73.1513119  31.5988612  64.1776943  72.9735184  32.0193791
  49.3574333  48.1275797  13.6998475  50.1939917  48.2936764  13.2653177
  49.5901394  47.9682493  14.6145570  18.9557493  19.6804178  24.9173379
  19.4014287  19.1267347  25.5584598  18.3250368  19.0974593  24.4947362
  49.9051156  62.2541001  56.8450449  50.8557573  62.2684266  56.7341183
  49.6496024  61.3628843  56.6069661  32.2750926  32.4911118  25.1970601
  33.0883741  32.7237344  24.7490764  31.6173601  33.0736661  24.8172569
  20.6920259   2.7380513  11.1440647  21.6457836   2.6624822  11.1145937
  20.3790854   2.0521592  10.5542684  40.0697660  41.1750984  18.4122062
  39.5683527  40.4296255  18.0819225  39.6688557  41.3778067  19.2574370
  38.0822325  39.8743176  31.8350577  38.7610269  40.5451012  31.9093227
  38.0421376  39.4768071  32.7048922  15.8079076   1.3775420  16.6860092
  15.9410441   0.9929348  15.8196461  15.0634313   1.9686432  16.5738177
  42.9742622  48.0995417  16.4482379  43.8085794  47.6329756  16.4978373
  43.2080793  49.0209484  16.5603614   2.3007257  27.4007012  59.1959081
   2.6239641  28.2092263  58.7983678   1.6209229  27.6885201  59.8052202
  42.9988081   4.1796280  39.9101077  43.2856018   4.3194224  40.8125721
  43.8073857   4.1875388  39.3978868  33.9715910  34.5697260   2.4129976
  33.2874227  35.1073909   2.0141706  33.7195158  33.6696267   2.2068202
  67.8431931  62.6563790  52.9175542  66.9264617  62.3878052  52.9783915
  68.2268968  62.0555904  52.2787617   1.9231613  31.6107918  53.9909862
   2.3545392  30.8383109  53.6257170   2.3909934  31.7823817  54.8082517
  63.4846210  61.1638403   2.3017013  63.8243389  61.6144991   3.0748305
  62.5424385  61.3315868   2.3213892  46.2934732  37.1167636   0.7081152
  46.5910578  36.2069988   0.7065763  46.7608786  37.5228882  -0.0218354
  52.3955202  74.5487738  14.2473221  51.9500446  74.4150591  13.4107208
  51.9189167  75.2690172  14.6600270  60.4141188  78.1901884   5.7137823
  59.5760202  77.8025961   5.9659666  60.1953316  78.7916899   5.0020498
  16.5463360  34.0526940  36.5790234  16.2624748  34.9477030  36.7650710
  16.2216862  33.5397316  37.3190962  17.7215588  56.9592476   5.6466037
  18.3723545  56.3361263   5.3234649  16.9688666  56.4177799   5.8843035
  12.9353436  27.8430630  47.1960173  12.4497040  28.6496998  47.0236169
  13.7860020  27.9820086  46.7797218  73.9394593  32.9169059  26.1084056
  74.4531416  33.4473801  25.4993415  73.6060833  32.1952915  25.5751491
  81.1338861  12.4008633  47.2669636  81.3984139  13.2467104  47.6286207
  80.5806525  12.0129467  47.9449640  60.4215908   3.1426665   7.4683857
  61.2425184   2.6521224   7.5093317  60.0355625   3.0365780   8.3378440
  30.3027534  36.1170959   4.0704250  30.7174873  35.2550840   4.1045487
  30.8822370  36.6820908   4.5815155  67.5422437   3.0411841  54.1452204
  66.9627489   3.2070805  54.8887907  68.4244723   3.1511761  54.4999121
  30.8721852  49.0148401   2.1468361  30.6821990  49.8375702   2.5976667
  31.5258551  48.5849333   2.6983169   6.4857991  13.7315775  65.8443548
   5.7709463  13.7468983  65.2079730   6.5086873  12.8272082  66.1571272
  78.3718824  32.3230767  25.9898233  78.2102728  31.8653297  26.8147969
  78.4095430  33.2482052  26.2326217  61.1991857  50.3510167  66.0562910
  60.6885244  50.0388123  66.8032737  60.7157181  51.1131169  65.7373868
  61.9696800  22.4051808  36.3694525  62.6337902  21.8029641  36.0340118
  61.7858474  22.9918145  35.6357670  50.9242392  26.6206360  23.0063558
  51.2690830  27.3285460  22.4621344  50.8455992  27.0059752  23.8790298
  75.8490569  16.8474556  69.2507394  76.1445112  16.4152266  68.4494167
  76.1358733  16.2669541  69.9557119  50.6201553  72.3120022  22.7741385
  50.7376814  72.1393013  23.7082648  51.5074015  72.3013067  22.4151015
  24.8033190  74.7593451   0.7188670  24.4349670  75.3301811   0.0445551
  24.6239877  73.8726139   0.4061634   5.3190106  35.3908563  19.5652854
   5.8887804  35.3878450  18.7961400   5.6129313  36.1437345  20.0781393
  50.8819866  56.4781952   0.2225756  50.0038147  56.1383867   0.3945468
  51.3092995  55.7902956  -0.2877434  64.7811604  24.3876719  13.8053429
  64.9411821  23.5200429  14.1766191  64.8689032  24.2636776  12.8602719
  33.4378512   3.0594110  17.9770541  33.2869525   2.3435830  17.3597550
  34.3552170   3.2992410  17.8460872  52.2101393  65.6437375  70.1734278
  52.7054539  64.8251226  70.1457032  52.6724019  66.1817267  70.8161672
  77.4974361  68.8798025  70.4441679  77.6913658  68.3384755  71.2094054
  77.4562135  69.7726872  70.7866444  61.7711306  59.2052460  19.2738783
  61.0206795  58.7389946  19.6422040  61.6474771  59.1475439  18.3264542
  45.7873344  31.8370247   9.9387515  46.3406754  32.5075817   9.5382541
  45.3242826  31.4374638   9.2024326  79.9591620  48.4037091  69.4115791
  79.2241509  48.1583096  69.9735137  80.7044871  48.4719731  70.0082905
  15.6408413  14.2623688  52.0967542  14.8866852  14.5254542  52.6242600
  15.3837641  13.4241558  51.7126427  35.6105301  80.8460953  52.2548996
  36.0757604  80.4201844  51.5349041  36.2965676  81.0717513  52.8831230
  68.9002099  49.3967613  68.8834347  69.3216148  50.2129360  68.6141620
  68.4596911  49.6143367  69.7049191   8.5190701  36.5973425  18.9743555
   8.8966238  35.8185101  19.3831408   8.4606862  36.3756227  18.0450201
   3.8635111  66.5993881  12.3600316   4.7085515  66.4019346  12.7639508
   4.0071857  67.4234295  11.8946862  39.1568637  74.8093414  22.4883366
  38.2254529  74.9089670  22.6852679  39.3173409  75.4239178  21.7722535
  68.2334263  24.1704775  69.7404936  68.9890094  23.5884215  69.8213617
  67.4805755  23.6152483  69.9433967  32.4046803  67.3145723  39.6331024
  31.7101026  67.0963049  39.0116906  32.0010567  67.9420090  40.2328014
  86.2935359  25.6585051  62.6834319  86.8165786  24.9502684  62.3078512
  85.5600936  25.7620646  62.0771561  84.7492409  54.2815113   6.9674331
  85.3732204  53.5559940   6.9899637  83.9532185  53.9251375   7.3618573
  33.1439264  20.0832535  45.7279836  33.3792837  19.9122263  46.6398989
  32.4166496  19.4862248  45.5523144  79.4877808   8.5435628   7.8312767
  79.5427982   8.7528562   8.7636924  78.9385645   9.2353772   7.4625164
  25.8931025  12.7461363  62.9832928  25.6791552  12.4843050  62.0878027
  25.9714993  13.6992241  62.9419087  65.7414046  80.2408721  50.7030330
  64.8136416  80.0660779  50.5451213  65.8418742  81.1766889  50.5287228
  78.9514024   0.1307560  67.0118435  79.0097339  -0.7065176  67.4720596
  78.3779986   0.6661107  67.5603323  69.8843975  40.9538056  68.2848684
  70.5957348  40.4670025  67.8686251  69.1137178  40.7524659  67.7540700
  24.9625206  27.9791355  14.3567431  25.6412530  28.6240506  14.1576433
  24.1581154  28.3622169  14.0068662
  86.7374801  86.7374801  86.7374801 109.4712190 109.4712190 109.4712190
